  128  128 1000    1
  0.4217882E+02  0.1754290E-08  0.1754290E-08  0.1754290E-08  0.2000000E-14
   723.00000000000000     
  CAR 
 Sodium                                  
    128      1    129

  0.2500000E+00  0.2500000E+00  0.2500000E+00  0.1000000E+01
    1       -2.760151
    2       -2.565158
    3       -2.527717
    4       -2.406929
    5       -2.326889
    6       -2.243662
    7       -2.166434
    8       -2.050989
    9       -2.038060
   10       -1.951990
   11       -1.904302
   12       -1.836683
   13       -1.773223
   14       -1.719307
   15       -1.694096
   16       -1.655568
   17       -1.619149
   18       -1.517962
   19       -1.460688
   20       -1.436952
   21       -1.316801
   22       -1.276135
   23       -1.253097
   24       -1.214736
   25       -1.187706
   26       -1.134364
   27       -1.062570
   28       -1.035006
   29       -1.009914
   30       -0.981321
   31       -0.957818
   32       -0.917880
   33       -0.892267
   34       -0.880642
   35       -0.826976
   36       -0.754533
   37       -0.699995
   38       -0.623824
   39       -0.567760
   40       -0.522041
   41       -0.499656
   42       -0.472871
   43       -0.446198
   44       -0.406830
   45       -0.382557
   46       -0.327094
   47       -0.283834
   48       -0.271383
   49       -0.248069
   50       -0.223332
   51       -0.206757
   52       -0.188657
   53       -0.163417
   54       -0.087873
   55       -0.046595
   56       -0.019218
   57        0.021230
   58        0.029541
   59        0.076495
   60        0.118947
   61        0.173488
   62        0.189822
   63        0.229602
   64        0.245743
   65        0.268936
   66        0.297801
   67        0.302094
   68        0.326430
   69        0.359805
   70        0.423466
   71        0.446173
   72        0.464149
   73        0.508296
   74        0.520236
   75        0.540496
   76        0.591024
   77        0.600130
   78        0.623251
   79        0.684449
   80        0.725228
   81        0.739703
   82        0.762669
   83        0.794439
   84        0.848343
   85        0.906759
   86        0.925074
   87        0.944229
   88        0.960160
   89        0.982551
   90        1.020246
   91        1.084335
   92        1.107451
   93        1.125518
   94        1.139485
   95        1.169067
   96        1.179474
   97        1.185226
   98        1.214349
   99        1.241840
  100        1.257376
  101        1.268935
  102        1.299964
  103        1.305810
  104        1.319424
  105        1.344152
  106        1.381572
  107        1.408078
  108        1.430988
  109        1.448561
  110        1.465972
  111        1.498942
  112        1.519160
  113        1.538841
  114        1.553944
  115        1.603060
  116        1.658429
  117        1.677438
  118        1.705143
  119        1.720254
  120        1.740923
  121        1.783234
  122        1.812011
  123        1.842401
  124        1.853145
  125        1.894693
  126        1.916546
  127        1.947119
  128        1.971368
  129        1.990414
