       N       E                     dE             d eps       ncg     rms          rms(c)
DAV:   1    -0.864102326298E+02   -0.86410E+02   -0.81861E+03   258   0.137E+02
DAV:   2    -0.146911369649E+03   -0.60501E+02   -0.56251E+02   300   0.297E+01
DAV:   3    -0.150427608906E+03   -0.35162E+01   -0.33909E+01   316   0.681E+00
DAV:   4    -0.150474169561E+03   -0.46561E-01   -0.46370E-01   308   0.844E-01
DAV:   5    -0.150474602475E+03   -0.43291E-03   -0.43266E-03   316   0.764E-02    0.373E+00
DAV:   6    -0.149462911516E+03    0.10117E+01   -0.14091E+00   316   0.168E+00    0.227E+00
DAV:   7    -0.149233310483E+03    0.22960E+00   -0.84406E-01   324   0.124E+00    0.150E+00
DAV:   8    -0.149114842163E+03    0.11847E+00   -0.46844E-01   292   0.769E-01    0.637E-01
DAV:   9    -0.149092981276E+03    0.21861E-01   -0.75244E-02   308   0.380E-01    0.220E-01
DAV:  10    -0.149089466133E+03    0.35151E-02   -0.78381E-03   308   0.136E-01    0.950E-02
DAV:  11    -0.149088389386E+03    0.10767E-02   -0.24307E-03   308   0.684E-02    0.323E-02
DAV:  12    -0.149088337592E+03    0.51793E-04   -0.64738E-04   292   0.308E-02
    1 T=   723. E= -.13721660E+03 F= -.14908834E+03 E0= -.14861388E+03  EK= 0.11872E+02 SP= 0.00E+00 SK= 0.00E+00
       N       E                     dE             d eps       ncg     rms          rms(c)
DAV:   1    -0.149102284574E+03   -0.13895E-01   -0.49007E-01   260   0.131E+00    0.842E-02
DAV:   2    -0.149102400861E+03   -0.11629E-03   -0.83772E-03   308   0.138E-01    0.497E-02
DAV:   3    -0.149102248059E+03    0.15280E-03   -0.45449E-04   316   0.313E-02    0.302E-02
DAV:   4    -0.149102186132E+03    0.61927E-04   -0.29866E-04   260   0.191E-02
    2 T=   724. E= -.13721649E+03 F= -.14910219E+03 E0= -.14862845E+03  EK= 0.11886E+02 SP= 0.00E+00 SK= 0.00E+00
       N       E                     dE             d eps       ncg     rms          rms(c)
DAV:   1    -0.149116452751E+03   -0.14205E-01   -0.67945E-03   300   0.206E-01    0.137E-02
DAV:   2    -0.149116607151E+03   -0.15440E-03   -0.16163E-03   276   0.680E-02    0.935E-03
DAV:   3    -0.149116604804E+03    0.23468E-05   -0.14537E-05   156   0.598E-03
    3 T=   725. E= -.13721648E+03 F= -.14911660E+03 E0= -.14864362E+03  EK= 0.11900E+02 SP= 0.00E+00 SK= 0.00E+00
       N       E                     dE             d eps       ncg     rms          rms(c)
DAV:   1    -0.149131061067E+03   -0.14454E-01   -0.14695E-02   163   0.291E-01    0.126E-02
DAV:   2    -0.149131113429E+03   -0.52362E-04   -0.62029E-04   316   0.313E-02
    4 T=   726. E= -.13721645E+03 F= -.14913111E+03 E0= -.14865891E+03  EK= 0.11915E+02 SP= 0.00E+00 SK= 0.00E+00
       N       E                     dE             d eps       ncg     rms          rms(c)
DAV:   1    -0.149145572825E+03   -0.14512E-01   -0.26282E-02   179   0.386E-01    0.210E-02
DAV:   2    -0.149145597442E+03   -0.24617E-04   -0.49276E-04   308   0.265E-02
    5 T=   727. E= -.13721635E+03 F= -.14914560E+03 E0= -.14867413E+03  EK= 0.11929E+02 SP= 0.00E+00 SK= 0.00E+00
       N       E                     dE             d eps       ncg     rms          rms(c)
DAV:   1    -0.149160001462E+03   -0.14429E-01   -0.40788E-02   180   0.476E-01    0.104E-02
DAV:   2    -0.149160030296E+03   -0.28834E-04   -0.42038E-04   308   0.285E-02
    6 T=   728. E= -.13721637E+03 F= -.14916003E+03 E0= -.14868930E+03  EK= 0.11944E+02 SP= 0.00E+00 SK= 0.00E+00
       N       E                     dE             d eps       ncg     rms          rms(c)
DAV:   1    -0.149174355530E+03   -0.14354E-01   -0.59921E-02   204   0.570E-01    0.169E-02
DAV:   2    -0.149174388409E+03   -0.32880E-04   -0.48554E-04   308   0.286E-02
    7 T=   728. E= -.13721649E+03 F= -.14917439E+03 E0= -.14870448E+03  EK= 0.11958E+02 SP= 0.00E+00 SK= 0.00E+00
       N       E                     dE             d eps       ncg     rms          rms(c)
DAV:   1    -0.149188510145E+03   -0.14155E-01   -0.83178E-02   172   0.669E-01    0.146E-02
DAV:   2    -0.149188561761E+03   -0.51616E-04   -0.57962E-04   300   0.356E-02
    8 T=   729. E= -.13721654E+03 F= -.14918856E+03 E0= -.14871946E+03  EK= 0.11972E+02 SP= 0.00E+00 SK= 0.00E+00
       N       E                     dE             d eps       ncg     rms          rms(c)
DAV:   1    -0.149202491396E+03   -0.13981E-01   -0.10911E-01   172   0.762E-01    0.105E-02
DAV:   2    -0.149202524388E+03   -0.32992E-04   -0.42369E-04   300   0.245E-02
    9 T=   730. E= -.13721658E+03 F= -.14920252E+03 E0= -.14873419E+03  EK= 0.11986E+02 SP= 0.00E+00 SK= 0.00E+00
       N       E                     dE             d eps       ncg     rms          rms(c)
DAV:   1    -0.149216236994E+03   -0.13746E-01   -0.13845E-01   203   0.854E-01    0.141E-02
DAV:   2    -0.149216292339E+03   -0.55345E-04   -0.60832E-04   308   0.291E-02
   10 T=   731. E= -.13721651E+03 F= -.14921629E+03 E0= -.14874875E+03  EK= 0.12000E+02 SP= 0.00E+00 SK= 0.00E+00
       N       E                     dE             d eps       ncg     rms          rms(c)
DAV:   1    -0.149230124950E+03   -0.13888E-01   -0.32369E-04   316   0.222E-02    0.120E-02
DAV:   2    -0.149230130630E+03   -0.56806E-05   -0.77228E-06   172   0.353E-03
   11 T=   732. E= -.13721648E+03 F= -.14923013E+03 E0= -.14876342E+03  EK= 0.12014E+02 SP= 0.00E+00 SK= 0.00E+00
       N       E                     dE             d eps       ncg     rms          rms(c)
DAV:   1    -0.149244354893E+03   -0.14230E-01   -0.15217E-03   228   0.997E-02    0.961E-03
DAV:   2    -0.149244373413E+03   -0.18519E-04   -0.23265E-04   276   0.220E-02
   12 T=   733. E= -.13721647E+03 F= -.14924437E+03 E0= -.14877849E+03  EK= 0.12028E+02 SP= 0.00E+00 SK= 0.00E+00
       N       E                     dE             d eps       ncg     rms          rms(c)
DAV:   1    -0.149259183939E+03   -0.14829E-01   -0.58758E-03   267   0.194E-01    0.162E-02
DAV:   2    -0.149259210604E+03   -0.26665E-04   -0.38612E-04   291   0.217E-02
   13 T=   734. E= -.13721650E+03 F= -.14925921E+03 E0= -.14879414E+03  EK= 0.12043E+02 SP= 0.00E+00 SK= 0.00E+00
       N       E                     dE             d eps       ncg     rms          rms(c)
DAV:   1    -0.149274633326E+03   -0.15449E-01   -0.13151E-02   172   0.289E-01    0.996E-03
DAV:   2    -0.149274679759E+03   -0.46433E-04   -0.41416E-04   300   0.281E-02
   14 T=   735. E= -.13721658E+03 F= -.14927468E+03 E0= -.14881043E+03  EK= 0.12058E+02 SP= 0.00E+00 SK= 0.00E+00
       N       E                     dE             d eps       ncg     rms          rms(c)
DAV:   1    -0.149290859245E+03   -0.16226E-01   -0.23438E-02   171   0.384E-01    0.138E-02
DAV:   2    -0.149290898221E+03   -0.38976E-04   -0.31869E-04   292   0.202E-02
   15 T=   736. E= -.13721663E+03 F= -.14929090E+03 E0= -.14882751E+03  EK= 0.12074E+02 SP= 0.00E+00 SK= 0.00E+00
       N       E                     dE             d eps       ncg     rms          rms(c)
DAV:   1    -0.149308053368E+03   -0.17194E-01   -0.36448E-02   171   0.480E-01    0.124E-02
DAV:   2    -0.149308092675E+03   -0.39307E-04   -0.42564E-04   292   0.253E-02
   16 T=   737. E= -.13721669E+03 F= -.14930809E+03 E0= -.14884558E+03  EK= 0.12091E+02 SP= 0.00E+00 SK= 0.00E+00
       N       E                     dE             d eps       ncg     rms          rms(c)
DAV:   1    -0.149326213821E+03   -0.18160E-01   -0.52025E-02   227   0.575E-01    0.818E-03
DAV:   2    -0.149326246475E+03   -0.32654E-04   -0.30839E-04   284   0.184E-02
   17 T=   738. E= -.13721667E+03 F= -.14932625E+03 E0= -.14886461E+03  EK= 0.12110E+02 SP= 0.00E+00 SK= 0.00E+00
       N       E                     dE             d eps       ncg     rms          rms(c)
DAV:   1    -0.149345335798E+03   -0.19122E-01   -0.70437E-02   228   0.669E-01    0.131E-02
DAV:   2    -0.149345416907E+03   -0.81109E-04   -0.58946E-04   284   0.258E-02
   18 T=   739. E= -.13721665E+03 F= -.14934542E+03 E0= -.14888467E+03  EK= 0.12129E+02 SP= 0.00E+00 SK= 0.00E+00
       N       E                     dE             d eps       ncg     rms          rms(c)
DAV:   1    -0.149365790522E+03   -0.20455E-01   -0.91904E-02   220   0.763E-01    0.124E-02
DAV:   2    -0.149365853475E+03   -0.62953E-04   -0.49472E-04   292   0.207E-02
   19 T=   740. E= -.13721672E+03 F= -.14936585E+03 E0= -.14890600E+03  EK= 0.12149E+02 SP= 0.00E+00 SK= 0.00E+00
       N       E                     dE             d eps       ncg     rms          rms(c)
DAV:   1    -0.149387414228E+03   -0.21624E-01   -0.11628E-01   196   0.858E-01    0.669E-03
DAV:   2    -0.149387459455E+03   -0.45227E-04   -0.45828E-04   284   0.219E-02
   20 T=   741. E= -.13721679E+03 F= -.14938746E+03 E0= -.14892852E+03  EK= 0.12171E+02 SP= 0.00E+00 SK= 0.00E+00
       N       E                     dE             d eps       ncg     rms          rms(c)
DAV:   1    -0.149409952037E+03   -0.22538E-01   -0.31055E-04   291   0.183E-02    0.124E-02
DAV:   2    -0.149409971850E+03   -0.19813E-04   -0.10943E-05   220   0.415E-03
   21 T=   743. E= -.13721679E+03 F= -.14940997E+03 E0= -.14895196E+03  EK= 0.12193E+02 SP= 0.00E+00 SK= 0.00E+00
       N       E                     dE             d eps       ncg     rms          rms(c)
DAV:   1    -0.149433263219E+03   -0.23311E-01   -0.13266E-03   268   0.986E-02    0.120E-02
DAV:   2    -0.149433313923E+03   -0.50703E-04   -0.25667E-04   284   0.198E-02
   22 T=   744. E= -.13721683E+03 F= -.14943331E+03 E0= -.14897625E+03  EK= 0.12216E+02 SP= 0.00E+00 SK= 0.00E+00
       N       E                     dE             d eps       ncg     rms          rms(c)
DAV:   1    -0.149457146199E+03   -0.23883E-01   -0.51315E-03   172   0.194E-01    0.114E-02
DAV:   2    -0.149457190520E+03   -0.44321E-04   -0.19156E-04   284   0.166E-02
   23 T=   746. E= -.13721693E+03 F= -.14945719E+03 E0= -.14900108E+03  EK= 0.12240E+02 SP= 0.00E+00 SK= 0.00E+00
       N       E                     dE             d eps       ncg     rms          rms(c)
DAV:   1    -0.149481255486E+03   -0.24109E-01   -0.11471E-02   172   0.291E-01    0.928E-03
DAV:   2    -0.149481295778E+03   -0.40292E-04   -0.37413E-04   300   0.249E-02
   24 T=   747. E= -.13721703E+03 F= -.14948130E+03 E0= -.14902617E+03  EK= 0.12264E+02 SP= 0.00E+00 SK= 0.00E+00
       N       E                     dE             d eps       ncg     rms          rms(c)
DAV:   1    -0.149505193923E+03   -0.23938E-01   -0.20328E-02   172   0.387E-01    0.135E-02
DAV:   2    -0.149505284441E+03   -0.90518E-04   -0.35436E-04   308   0.207E-02
   25 T=   749. E= -.13721696E+03 F= -.14950528E+03 E0= -.14905117E+03  EK= 0.12288E+02 SP= 0.00E+00 SK= 0.00E+00
       N       E                     dE             d eps       ncg     rms          rms(c)
DAV:   1    -0.149529081177E+03   -0.23887E-01   -0.31724E-02   212   0.483E-01    0.125E-02
DAV:   2    -0.149529193009E+03   -0.11183E-03   -0.68242E-04   284   0.280E-02    0.113E-02
DAV:   3    -0.149529233362E+03   -0.40354E-04   -0.26714E-05   180   0.706E-03
   26 T=   750. E= -.13721704E+03 F= -.14952923E+03 E0= -.14907611E+03  EK= 0.12312E+02 SP= 0.00E+00 SK= 0.00E+00
       N       E                     dE             d eps       ncg     rms          rms(c)
DAV:   1    -0.149552485939E+03   -0.23293E-01   -0.45642E-02   251   0.580E-01    0.200E-02
DAV:   2    -0.149552706971E+03   -0.22103E-03   -0.99307E-04   292   0.329E-02    0.120E-02
DAV:   3    -0.149552733952E+03   -0.26980E-04   -0.37555E-05   180   0.931E-03
   27 T=   751. E= -.13721708E+03 F= -.14955273E+03 E0= -.14910058E+03  EK= 0.12336E+02 SP= 0.00E+00 SK= 0.00E+00
       N       E                     dE             d eps       ncg     rms          rms(c)
DAV:   1    -0.149574975058E+03   -0.22268E-01   -0.63804E-02   307   0.679E-01    0.123E-02
DAV:   2    -0.149575438857E+03   -0.46380E-03   -0.47760E-03   276   0.767E-02    0.130E-02
DAV:   3    -0.149575472095E+03   -0.33238E-04   -0.30200E-05   227   0.810E-03
   28 T=   753. E= -.13721707E+03 F= -.14957547E+03 E0= -.14912433E+03  EK= 0.12358E+02 SP= 0.00E+00 SK= 0.00E+00
       N       E                     dE             d eps       ncg     rms          rms(c)
DAV:   1    -0.149597056291E+03   -0.21617E-01   -0.80700E-02   219   0.770E-01    0.176E-02
DAV:   2    -0.149597273932E+03   -0.21764E-03   -0.12695E-03   292   0.354E-02    0.770E-03
DAV:   3    -0.149597289963E+03   -0.16031E-04   -0.27566E-05   180   0.824E-03
   29 T=   754. E= -.13721718E+03 F= -.14959729E+03 E0= -.14914716E+03  EK= 0.12380E+02 SP= 0.00E+00 SK= 0.00E+00
       N       E                     dE             d eps       ncg     rms          rms(c)
DAV:   1    -0.149617745396E+03   -0.20471E-01   -0.10155E-01   155   0.865E-01    0.121E-02
DAV:   2    -0.149617823763E+03   -0.78367E-04   -0.38929E-04   292   0.196E-02
   30 T=   755. E= -.13721727E+03 F= -.14961782E+03 E0= -.14916872E+03  EK= 0.12401E+02 SP= 0.00E+00 SK= 0.00E+00
       N       E                     dE             d eps       ncg     rms          rms(c)
DAV:   1    -0.149636296100E+03   -0.18551E-01   -0.38167E-04   322   0.223E-02    0.184E-02
DAV:   2    -0.149636492773E+03   -0.19667E-03   -0.10075E-04   244   0.981E-03    0.151E-02
DAV:   3    -0.149636711700E+03   -0.21893E-03   -0.22635E-04   276   0.151E-02    0.103E-02
DAV:   4    -0.149636876919E+03   -0.16522E-03   -0.62809E-04   276   0.243E-02    0.322E-03
DAV:   5    -0.149636877022E+03   -0.10321E-06   -0.57635E-06   164   0.353E-03
   31 T=   757. E= -.13721741E+03 F= -.14963688E+03 E0= -.14918876E+03  EK= 0.12419E+02 SP= 0.00E+00 SK= 0.00E+00
       N       E                     dE             d eps       ncg     rms          rms(c)
DAV:   1    -0.149653525680E+03   -0.16649E-01   -0.14259E-03   354   0.101E-01    0.189E-02
DAV:   2    -0.149653668187E+03   -0.14251E-03   -0.47612E-04   276   0.262E-02    0.155E-02
DAV:   3    -0.149653778139E+03   -0.10995E-03   -0.60724E-05   212   0.859E-03    0.111E-02
DAV:   4    -0.149653912634E+03   -0.13449E-03   -0.41039E-04   276   0.202E-02    0.298E-03
DAV:   5    -0.149653914429E+03   -0.17951E-05   -0.78475E-06   156   0.375E-03
   32 T=   758. E= -.13721750E+03 F= -.14965391E+03 E0= -.14920679E+03  EK= 0.12436E+02 SP= 0.00E+00 SK= 0.00E+00
       N       E                     dE             d eps       ncg     rms          rms(c)
DAV:   1    -0.149668466822E+03   -0.14554E-01   -0.45721E-03   202   0.195E-01    0.657E-03
DAV:   2    -0.149668497569E+03   -0.30748E-04   -0.20701E-04   292   0.143E-02
   33 T=   758. E= -.13721751E+03 F= -.14966850E+03 E0= -.14922235E+03  EK= 0.12451E+02 SP= 0.00E+00 SK= 0.00E+00
       N       E                     dE             d eps       ncg     rms          rms(c)
DAV:   1    -0.149680373256E+03   -0.11906E-01   -0.10184E-02   180   0.292E-01    0.741E-03
DAV:   2    -0.149680419145E+03   -0.45889E-04   -0.29142E-04   300   0.177E-02
   34 T=   759. E= -.13721754E+03 F= -.14968042E+03 E0= -.14923522E+03  EK= 0.12463E+02 SP= 0.00E+00 SK= 0.00E+00
       N       E                     dE             d eps       ncg     rms          rms(c)
DAV:   1    -0.149689330570E+03   -0.89573E-02   -0.17927E-02   156   0.388E-01    0.743E-03
DAV:   2    -0.149689386451E+03   -0.55881E-04   -0.30445E-04   324   0.156E-02
   35 T=   760. E= -.13721763E+03 F= -.14968939E+03 E0= -.14924511E+03  EK= 0.12472E+02 SP= 0.00E+00 SK= 0.00E+00
       N       E                     dE             d eps       ncg     rms          rms(c)
DAV:   1    -0.149694995485E+03   -0.56649E-02   -0.27772E-02   204   0.484E-01    0.550E-03
DAV:   2    -0.149695033954E+03   -0.38469E-04   -0.33045E-04   316   0.142E-02
   36 T=   760. E= -.13721770E+03 F= -.14969503E+03 E0= -.14925164E+03  EK= 0.12477E+02 SP= 0.00E+00 SK= 0.00E+00
       N       E                     dE             d eps       ncg     rms          rms(c)
DAV:   1    -0.149697123992E+03   -0.21285E-02   -0.39589E-02   180   0.581E-01    0.484E-03
DAV:   2    -0.149697152583E+03   -0.28592E-04   -0.22361E-04   300   0.139E-02
   37 T=   760. E= -.13721779E+03 F= -.14969715E+03 E0= -.14925459E+03  EK= 0.12479E+02 SP= 0.00E+00 SK= 0.00E+00
       N       E                     dE             d eps       ncg     rms          rms(c)
DAV:   1    -0.149695348998E+03    0.17750E-02   -0.53338E-02   188   0.676E-01    0.980E-03
DAV:   2    -0.149695423165E+03   -0.74167E-04   -0.43803E-04   316   0.191E-02
   38 T=   760. E= -.13721781E+03 F= -.14969542E+03 E0= -.14925365E+03  EK= 0.12478E+02 SP= 0.00E+00 SK= 0.00E+00
       N       E                     dE             d eps       ncg     rms          rms(c)
DAV:   1    -0.149689743754E+03    0.56052E-02   -0.69061E-02   227   0.770E-01    0.796E-03
DAV:   2    -0.149689810567E+03   -0.66814E-04   -0.56799E-04   308   0.223E-02
   39 T=   760. E= -.13721798E+03 F= -.14968981E+03 E0= -.14924879E+03  EK= 0.12472E+02 SP= 0.00E+00 SK= 0.00E+00
       N       E                     dE             d eps       ncg     rms          rms(c)
DAV:   1    -0.149679608390E+03    0.10135E-01   -0.86555E-02   162   0.865E-01    0.630E-03
DAV:   2    -0.149679665114E+03   -0.56724E-04   -0.49548E-04   284   0.257E-02
   40 T=   759. E= -.13721802E+03 F= -.14967967E+03 E0= -.14923934E+03  EK= 0.12462E+02 SP= 0.00E+00 SK= 0.00E+00
       N       E                     dE             d eps       ncg     rms          rms(c)
DAV:   1    -0.149664791088E+03    0.14817E-01   -0.40074E-04   316   0.234E-02    0.897E-03
DAV:   2    -0.149664828851E+03   -0.37763E-04   -0.18939E-05   172   0.508E-03
   41 T=   758. E= -.13721801E+03 F= -.14966483E+03 E0= -.14922514E+03  EK= 0.12447E+02 SP= 0.00E+00 SK= 0.00E+00
       N       E                     dE             d eps       ncg     rms          rms(c)
DAV:   1    -0.149645156687E+03    0.19634E-01   -0.11438E-03   284   0.986E-02    0.119E-02
DAV:   2    -0.149645245103E+03   -0.88416E-04   -0.35278E-04   276   0.210E-02
   42 T=   757. E= -.13721802E+03 F= -.14964525E+03 E0= -.14920613E+03  EK= 0.12427E+02 SP= 0.00E+00 SK= 0.00E+00
       N       E                     dE             d eps       ncg     rms          rms(c)
DAV:   1    -0.149620707088E+03    0.24450E-01   -0.43043E-03   300   0.193E-01    0.112E-02
DAV:   2    -0.149620792626E+03   -0.85538E-04   -0.37129E-04   276   0.182E-02
   43 T=   756. E= -.13721806E+03 F= -.14962079E+03 E0= -.14918215E+03  EK= 0.12403E+02 SP= 0.00E+00 SK= 0.00E+00
       N       E                     dE             d eps       ncg     rms          rms(c)
DAV:   1    -0.149591201236E+03    0.29506E-01   -0.98136E-03   348   0.290E-01    0.133E-02
DAV:   2    -0.149591341180E+03   -0.13994E-03   -0.81198E-04   268   0.287E-02    0.845E-03
DAV:   3    -0.149591355643E+03   -0.14463E-04   -0.24136E-05   156   0.761E-03
   44 T=   754. E= -.13721814E+03 F= -.14959136E+03 E0= -.14915307E+03  EK= 0.12373E+02 SP= 0.00E+00 SK= 0.00E+00
       N       E                     dE             d eps       ncg     rms          rms(c)
DAV:   1    -0.149556389071E+03    0.34952E-01   -0.18055E-02   299   0.387E-01    0.119E-02
DAV:   2    -0.149556610607E+03   -0.22154E-03   -0.22545E-03   276   0.552E-02    0.118E-02
DAV:   3    -0.149556640815E+03   -0.30209E-04   -0.30612E-05   196   0.836E-03
   45 T=   752. E= -.13721808E+03 F= -.14955664E+03 E0= -.14911871E+03  EK= 0.12339E+02 SP= 0.00E+00 SK= 0.00E+00
       N       E                     dE             d eps       ncg     rms          rms(c)
DAV:   1    -0.149516934810E+03    0.39676E-01   -0.26317E-02   179   0.477E-01    0.902E-03
DAV:   2    -0.149516988483E+03   -0.53673E-04   -0.30285E-04   300   0.212E-02
   46 T=   749. E= -.13721821E+03 F= -.14951699E+03 E0= -.14907929E+03  EK= 0.12299E+02 SP= 0.00E+00 SK= 0.00E+00
       N       E                     dE             d eps       ncg     rms          rms(c)
DAV:   1    -0.149472212716E+03    0.44722E-01   -0.37757E-02   155   0.570E-01    0.800E-03
DAV:   2    -0.149472247622E+03   -0.34906E-04   -0.32936E-04   308   0.220E-02
   47 T=   746. E= -.13721820E+03 F= -.14947225E+03 E0= -.14903474E+03  EK= 0.12254E+02 SP= 0.00E+00 SK= 0.00E+00
       N       E                     dE             d eps       ncg     rms          rms(c)
DAV:   1    -0.149422412960E+03    0.49800E-01   -0.51303E-02   156   0.663E-01    0.153E-02
DAV:   2    -0.149422546492E+03   -0.13353E-03   -0.26175E-04   308   0.226E-02    0.117E-02
DAV:   3    -0.149422664402E+03   -0.11791E-03   -0.10709E-04   236   0.103E-02    0.806E-03
DAV:   4    -0.149422754973E+03   -0.90570E-04   -0.26019E-04   276   0.159E-02
   48 T=   743. E= -.13721826E+03 F= -.14942275E+03 E0= -.14898533E+03  EK= 0.12204E+02 SP= 0.00E+00 SK= 0.00E+00
       N       E                     dE             d eps       ncg     rms          rms(c)
DAV:   1    -0.149368246649E+03    0.54418E-01   -0.66650E-02   156   0.755E-01    0.158E-02
DAV:   2    -0.149368327161E+03   -0.80512E-04   -0.11431E-04   228   0.151E-02
   49 T=   740. E= -.13721815E+03 F= -.14936833E+03 E0= -.14893090E+03  EK= 0.12150E+02 SP= 0.00E+00 SK= 0.00E+00
       N       E                     dE             d eps       ncg     rms          rms(c)
DAV:   1    -0.149309257563E+03    0.58989E-01   -0.84316E-02   236   0.848E-01    0.133E-02
DAV:   2    -0.149309450979E+03   -0.19342E-03   -0.17801E-03   276   0.453E-02    0.147E-02
DAV:   3    -0.149309496389E+03   -0.45409E-04   -0.26892E-05   196   0.740E-03
   50 T=   737. E= -.13721810E+03 F= -.14930950E+03 E0= -.14887203E+03  EK= 0.12091E+02 SP= 0.00E+00 SK= 0.00E+00
       N       E                     dE             d eps       ncg     rms          rms(c)
DAV:   1    -0.149246860857E+03    0.62590E-01   -0.84215E-04   283   0.301E-02    0.118E-02
DAV:   2    -0.149246879686E+03   -0.18830E-04   -0.48800E-05   220   0.120E-02
   51 T=   733. E= -.13721820E+03 F= -.14924688E+03 E0= -.14880929E+03  EK= 0.12029E+02 SP= 0.00E+00 SK= 0.00E+00
       N       E                     dE             d eps       ncg     rms          rms(c)
DAV:   1    -0.149179928219E+03    0.66933E-01   -0.25047E-03   275   0.109E-01    0.212E-02
DAV:   2    -0.149180241068E+03   -0.31285E-03   -0.12776E-03   292   0.443E-02    0.179E-02
DAV:   3    -0.149180387397E+03   -0.14633E-03   -0.84520E-05   204   0.112E-02    0.153E-02
DAV:   4    -0.149180718438E+03   -0.33104E-03   -0.80558E-04   268   0.280E-02    0.553E-03
DAV:   5    -0.149180753304E+03   -0.34866E-04   -0.15854E-04   292   0.128E-02
   52 T=   729. E= -.13721820E+03 F= -.14918075E+03 E0= -.14874300E+03  EK= 0.11963E+02 SP= 0.00E+00 SK= 0.00E+00
       N       E                     dE             d eps       ncg     rms          rms(c)
DAV:   1    -0.149111177013E+03    0.69541E-01   -0.42728E-03   276   0.191E-01    0.213E-02
DAV:   2    -0.149111374330E+03   -0.19732E-03   -0.11555E-03   276   0.414E-02    0.187E-02
DAV:   3    -0.149111547095E+03   -0.17277E-03   -0.12202E-04   244   0.116E-02    0.114E-02
DAV:   4    -0.149111666121E+03   -0.11903E-03   -0.31798E-04   260   0.184E-02    0.274E-03
DAV:   5    -0.149111669022E+03   -0.29007E-05   -0.12873E-05   132   0.448E-03
   53 T=   725. E= -.13721816E+03 F= -.14911167E+03 E0= -.14867369E+03  EK= 0.11894E+02 SP= 0.00E+00 SK= 0.00E+00
       N       E                     dE             d eps       ncg     rms          rms(c)
DAV:   1    -0.149040200476E+03    0.71466E-01   -0.80972E-03   179   0.278E-01    0.875E-03
DAV:   2    -0.149040231536E+03   -0.31061E-04   -0.11831E-04   236   0.137E-02
   54 T=   720. E= -.13721807E+03 F= -.14904023E+03 E0= -.14860197E+03  EK= 0.11822E+02 SP= 0.00E+00 SK= 0.00E+00
       N       E                     dE             d eps       ncg     rms          rms(c)
DAV:   1    -0.148967306702E+03    0.72894E-01   -0.14320E-02   164   0.369E-01    0.109E-02
DAV:   2    -0.148967373066E+03   -0.66363E-04   -0.30261E-04   308   0.212E-02
   55 T=   716. E= -.13721804E+03 F= -.14896737E+03 E0= -.14852880E+03  EK= 0.11749E+02 SP= 0.00E+00 SK= 0.00E+00
       N       E                     dE             d eps       ncg     rms          rms(c)
DAV:   1    -0.148893827329E+03    0.73479E-01   -0.22295E-02   172   0.459E-01    0.807E-03
DAV:   2    -0.148893866013E+03   -0.38684E-04   -0.14595E-04   276   0.149E-02
   56 T=   711. E= -.13721806E+03 F= -.14889387E+03 E0= -.14845491E+03  EK= 0.11676E+02 SP= 0.00E+00 SK= 0.00E+00
       N       E                     dE             d eps       ncg     rms          rms(c)
DAV:   1    -0.148820419418E+03    0.73408E-01   -0.32007E-02   156   0.549E-01    0.607E-03
DAV:   2    -0.148820434709E+03   -0.15291E-04   -0.81202E-05   196   0.121E-02
   57 T=   707. E= -.13721802E+03 F= -.14882043E+03 E0= -.14838107E+03  EK= 0.11602E+02 SP= 0.00E+00 SK= 0.00E+00
       N       E                     dE             d eps       ncg     rms          rms(c)
DAV:   1    -0.148747840690E+03    0.72579E-01   -0.43377E-02   155   0.638E-01    0.985E-03
DAV:   2    -0.148747884395E+03   -0.43706E-04   -0.23035E-04   292   0.199E-02
   58 T=   702. E= -.13721795E+03 F= -.14874788E+03 E0= -.14830807E+03  EK= 0.11530E+02 SP= 0.00E+00 SK= 0.00E+00
       N       E                     dE             d eps       ncg     rms          rms(c)
DAV:   1    -0.148677078109E+03    0.70763E-01   -0.56221E-02   179   0.726E-01    0.132E-02
DAV:   2    -0.148677141028E+03   -0.62919E-04   -0.24635E-04   292   0.169E-02
   59 T=   698. E= -.13721792E+03 F= -.14867714E+03 E0= -.14823686E+03  EK= 0.11459E+02 SP= 0.00E+00 SK= 0.00E+00
       N       E                     dE             d eps       ncg     rms          rms(c)
DAV:   1    -0.148608993910E+03    0.68084E-01   -0.70424E-02   196   0.814E-01    0.103E-02
DAV:   2    -0.148609063219E+03   -0.69310E-04   -0.44615E-04   284   0.243E-02
   60 T=   694. E= -.13721797E+03 F= -.14860906E+03 E0= -.14816832E+03  EK= 0.11391E+02 SP= 0.00E+00 SK= 0.00E+00
       N       E                     dE             d eps       ncg     rms          rms(c)
DAV:   1    -0.148544093164E+03    0.64901E-01   -0.76954E-04   275   0.329E-02    0.177E-02
DAV:   2    -0.148544178762E+03   -0.85598E-04   -0.37360E-05   212   0.786E-03
   61 T=   690. E= -.13721784E+03 F= -.14854418E+03 E0= -.14810301E+03  EK= 0.11326E+02 SP= 0.00E+00 SK= 0.00E+00
       N       E                     dE             d eps       ncg     rms          rms(c)
DAV:   1    -0.148483606762E+03    0.60486E-01   -0.99310E-04   276   0.943E-02    0.166E-02
DAV:   2    -0.148483733307E+03   -0.12655E-03   -0.41435E-04   276   0.287E-02    0.134E-02
DAV:   3    -0.148483794996E+03   -0.61688E-04   -0.29958E-05   164   0.682E-03
   62 T=   686. E= -.13721785E+03 F= -.14848379E+03 E0= -.14804212E+03  EK= 0.11266E+02 SP= 0.00E+00 SK= 0.00E+00
       N       E                     dE             d eps       ncg     rms          rms(c)
DAV:   1    -0.148428443930E+03    0.55289E-01   -0.39407E-03   291   0.181E-01    0.298E-02
DAV:   2    -0.148428662982E+03   -0.21905E-03   -0.56757E-04   292   0.324E-02    0.212E-02
DAV:   3    -0.148428736445E+03   -0.73463E-04   -0.66759E-05   164   0.122E-02
   63 T=   683. E= -.13721775E+03 F= -.14842874E+03 E0= -.14798655E+03  EK= 0.11211E+02 SP= 0.00E+00 SK= 0.00E+00
       N       E                     dE             d eps       ncg     rms          rms(c)
DAV:   1    -0.148379850448E+03    0.48813E-01   -0.12007E-02   275   0.285E-01    0.125E-02
DAV:   2    -0.148380242522E+03   -0.39207E-03   -0.37502E-03   276   0.792E-02    0.913E-03
DAV:   3    -0.148380246259E+03   -0.37373E-05   -0.38007E-05   204   0.100E-02
   64 T=   680. E= -.13721784E+03 F= -.14838025E+03 E0= -.14793755E+03  EK= 0.11162E+02 SP= 0.00E+00 SK= 0.00E+00
       N       E                     dE             d eps       ncg     rms          rms(c)
DAV:   1    -0.148338312892E+03    0.41930E-01   -0.15250E-02   275   0.362E-01    0.173E-02
DAV:   2    -0.148338626386E+03   -0.31349E-03   -0.31901E-03   276   0.670E-02    0.105E-02
DAV:   3    -0.148338643696E+03   -0.17310E-04   -0.26160E-05   196   0.824E-03
   65 T=   677. E= -.13721778E+03 F= -.14833864E+03 E0= -.14789545E+03  EK= 0.11121E+02 SP= 0.00E+00 SK= 0.00E+00
       N       E                     dE             d eps       ncg     rms          rms(c)
DAV:   1    -0.148304711251E+03    0.33915E-01   -0.22241E-02   179   0.443E-01    0.163E-02
DAV:   2    -0.148304780730E+03   -0.69479E-04   -0.34948E-04   316   0.205E-02
   66 T=   675. E= -.13721773E+03 F= -.14830478E+03 E0= -.14786109E+03  EK= 0.11087E+02 SP= 0.00E+00 SK= 0.00E+00
       N       E                     dE             d eps       ncg     rms          rms(c)
DAV:   1    -0.148279314226E+03    0.25397E-01   -0.31878E-02   203   0.530E-01    0.104E-02
DAV:   2    -0.148279382283E+03   -0.68056E-04   -0.46154E-04   308   0.226E-02
   67 T=   674. E= -.13721766E+03 F= -.14827938E+03 E0= -.14783518E+03  EK= 0.11062E+02 SP= 0.00E+00 SK= 0.00E+00
       N       E                     dE             d eps       ncg     rms          rms(c)
DAV:   1    -0.148263061823E+03    0.16252E-01   -0.43158E-02   178   0.617E-01    0.110E-02
DAV:   2    -0.148263122138E+03   -0.60315E-04   -0.34860E-04   300   0.212E-02
   68 T=   673. E= -.13721766E+03 F= -.14826312E+03 E0= -.14781839E+03  EK= 0.11045E+02 SP= 0.00E+00 SK= 0.00E+00
       N       E                     dE             d eps       ncg     rms          rms(c)
DAV:   1    -0.148255928901E+03    0.71329E-02   -0.57426E-02   460   0.704E-01    0.139E-02
DAV:   2    -0.148256357931E+03   -0.42903E-03   -0.39633E-03   276   0.481E-02    0.109E-02
DAV:   3    -0.148256391551E+03   -0.33620E-04   -0.34879E-05   180   0.799E-03
   69 T=   672. E= -.13721764E+03 F= -.14825639E+03 E0= -.14781111E+03  EK= 0.11039E+02 SP= 0.00E+00 SK= 0.00E+00
       N       E                     dE             d eps       ncg     rms          rms(c)
DAV:   1    -0.148259421343E+03   -0.30634E-02   -0.71510E-02   379   0.790E-01    0.154E-02
DAV:   2    -0.148259685647E+03   -0.26430E-03   -0.22820E-03   268   0.366E-02    0.105E-02
DAV:   3    -0.148259701081E+03   -0.15434E-04   -0.40683E-05   164   0.979E-03
   70 T=   673. E= -.13721767E+03 F= -.14825970E+03 E0= -.14781388E+03  EK= 0.11042E+02 SP= 0.00E+00 SK= 0.00E+00
       N       E                     dE             d eps       ncg     rms          rms(c)
DAV:   1    -0.148273175754E+03   -0.13490E-01   -0.15431E-03   275   0.440E-02    0.116E-02
DAV:   2    -0.148273180052E+03   -0.42985E-05   -0.22973E-05   196   0.913E-03
   71 T=   673. E= -.13721770E+03 F= -.14827318E+03 E0= -.14782679E+03  EK= 0.11055E+02 SP= 0.00E+00 SK= 0.00E+00
       N       E                     dE             d eps       ncg     rms          rms(c)
DAV:   1    -0.148296836062E+03   -0.23660E-01   -0.13049E-03   260   0.952E-02    0.109E-02
DAV:   2    -0.148296893483E+03   -0.57421E-04   -0.48851E-04   284   0.257E-02
   72 T=   675. E= -.13721771E+03 F= -.14829689E+03 E0= -.14784995E+03  EK= 0.11079E+02 SP= 0.00E+00 SK= 0.00E+00
       N       E                     dE             d eps       ncg     rms          rms(c)
DAV:   1    -0.148330810126E+03   -0.33974E-01   -0.43147E-03   211   0.182E-01    0.103E-02
DAV:   2    -0.148330839944E+03   -0.29818E-04   -0.29589E-04   268   0.209E-02
   73 T=   677. E= -.13721776E+03 F= -.14833084E+03 E0= -.14788330E+03  EK= 0.11113E+02 SP= 0.00E+00 SK= 0.00E+00
       N       E                     dE             d eps       ncg     rms          rms(c)
DAV:   1    -0.148374562133E+03   -0.43752E-01   -0.94351E-03   179   0.268E-01    0.121E-02
DAV:   2    -0.148374616252E+03   -0.54119E-04   -0.30356E-04   300   0.200E-02
   74 T=   680. E= -.13721776E+03 F= -.14837462E+03 E0= -.14792648E+03  EK= 0.11157E+02 SP= 0.00E+00 SK= 0.00E+00
       N       E                     dE             d eps       ncg     rms          rms(c)
DAV:   1    -0.148427723243E+03   -0.53161E-01   -0.16692E-02   156   0.357E-01    0.984E-03
DAV:   2    -0.148427764496E+03   -0.41253E-04   -0.31515E-04   316   0.222E-02
   75 T=   683. E= -.13721780E+03 F= -.14842776E+03 E0= -.14797900E+03  EK= 0.11210E+02 SP= 0.00E+00 SK= 0.00E+00
       N       E                     dE             d eps       ncg     rms          rms(c)
DAV:   1    -0.148489557146E+03   -0.61834E-01   -0.26049E-02   156   0.446E-01    0.710E-03
DAV:   2    -0.148489583742E+03   -0.26596E-04   -0.23116E-04   300   0.187E-02
   76 T=   687. E= -.13721787E+03 F= -.14848958E+03 E0= -.14804018E+03  EK= 0.11272E+02 SP= 0.00E+00 SK= 0.00E+00
       N       E                     dE             d eps       ncg     rms          rms(c)
DAV:   1    -0.148559043950E+03   -0.69487E-01   -0.37537E-02   196   0.535E-01    0.113E-02
DAV:   2    -0.148559079077E+03   -0.35127E-04   -0.21717E-04   300   0.174E-02
   77 T=   691. E= -.13721783E+03 F= -.14855908E+03 E0= -.14810902E+03  EK= 0.11341E+02 SP= 0.00E+00 SK= 0.00E+00
       N       E                     dE             d eps       ncg     rms          rms(c)
DAV:   1    -0.148635338135E+03   -0.76294E-01   -0.51015E-02   180   0.623E-01    0.147E-02
DAV:   2    -0.148635380569E+03   -0.42434E-04   -0.24842E-04   300   0.177E-02
   78 T=   696. E= -.13721790E+03 F= -.14863538E+03 E0= -.14818467E+03  EK= 0.11417E+02 SP= 0.00E+00 SK= 0.00E+00
       N       E                     dE             d eps       ncg     rms          rms(c)
DAV:   1    -0.148717332970E+03   -0.81995E-01   -0.66649E-02   164   0.712E-01    0.584E-03
DAV:   2    -0.148717361825E+03   -0.28855E-04   -0.26891E-04   316   0.167E-02
   79 T=   700. E= -.13721798E+03 F= -.14871736E+03 E0= -.14826599E+03  EK= 0.11499E+02 SP= 0.00E+00 SK= 0.00E+00
       N       E                     dE             d eps       ncg     rms          rms(c)
DAV:   1    -0.148803658152E+03   -0.86325E-01   -0.84437E-02   164   0.801E-01    0.134E-02
DAV:   2    -0.148803720102E+03   -0.61950E-04   -0.47418E-04   316   0.206E-02
   80 T=   706. E= -.13721801E+03 F= -.14880372E+03 E0= -.14835169E+03  EK= 0.11586E+02 SP= 0.00E+00 SK= 0.00E+00
       N       E                     dE             d eps       ncg     rms          rms(c)
DAV:   1    -0.148893067532E+03   -0.89409E-01   -0.48464E-04   308   0.250E-02    0.186E-02
DAV:   2    -0.148893137699E+03   -0.70167E-04   -0.27265E-05   188   0.647E-03
   81 T=   711. E= -.13721805E+03 F= -.14889314E+03 E0= -.14844045E+03  EK= 0.11675E+02 SP= 0.00E+00 SK= 0.00E+00
       N       E                     dE             d eps       ncg     rms          rms(c)
DAV:   1    -0.148984247855E+03   -0.91180E-01   -0.12243E-03   258   0.944E-02    0.771E-03
DAV:   2    -0.148984274195E+03   -0.26340E-04   -0.23733E-04   268   0.194E-02
   82 T=   717. E= -.13721817E+03 F= -.14898427E+03 E0= -.14853092E+03  EK= 0.11766E+02 SP= 0.00E+00 SK= 0.00E+00
       N       E                     dE             d eps       ncg     rms          rms(c)
DAV:   1    -0.149075430140E+03   -0.91182E-01   -0.47271E-03   259   0.186E-01    0.147E-02
DAV:   2    -0.149075469024E+03   -0.38884E-04   -0.42826E-04   284   0.254E-02
   83 T=   722. E= -.13721817E+03 F= -.14907547E+03 E0= -.14862147E+03  EK= 0.11857E+02 SP= 0.00E+00 SK= 0.00E+00
       N       E                     dE             d eps       ncg     rms          rms(c)
DAV:   1    -0.149165317795E+03   -0.89888E-01   -0.10543E-02   156   0.278E-01    0.243E-02
DAV:   2    -0.149165394382E+03   -0.76587E-04   -0.39938E-04   300   0.283E-02
   84 T=   728. E= -.13721812E+03 F= -.14916539E+03 E0= -.14871078E+03  EK= 0.11947E+02 SP= 0.00E+00 SK= 0.00E+00
       N       E                     dE             d eps       ncg     rms          rms(c)
DAV:   1    -0.149252747112E+03   -0.87429E-01   -0.18508E-02   244   0.369E-01    0.172E-02
DAV:   2    -0.149252770379E+03   -0.23268E-04   -0.34233E-04   276   0.340E-02
   85 T=   733. E= -.13721819E+03 F= -.14925277E+03 E0= -.14879756E+03  EK= 0.12035E+02 SP= 0.00E+00 SK= 0.00E+00
       N       E                     dE             d eps       ncg     rms          rms(c)
DAV:   1    -0.149335855804E+03   -0.83109E-01   -0.29469E-02   220   0.469E-01    0.291E-02
DAV:   2    -0.149336063901E+03   -0.20810E-03   -0.18995E-03   292   0.610E-02    0.228E-02
DAV:   3    -0.149336082518E+03   -0.18618E-04   -0.57515E-05   172   0.134E-02
   86 T=   738. E= -.13721815E+03 F= -.14933608E+03 E0= -.14888031E+03  EK= 0.12118E+02 SP= 0.00E+00 SK= 0.00E+00
       N       E                     dE             d eps       ncg     rms          rms(c)
DAV:   1    -0.149414347395E+03   -0.78283E-01   -0.42205E-02   220   0.558E-01    0.226E-02
DAV:   2    -0.149414535532E+03   -0.18814E-03   -0.17400E-03   300   0.551E-02    0.182E-02
DAV:   3    -0.149414529162E+03    0.63701E-05   -0.18806E-05   156   0.667E-03
   87 T=   743. E= -.13721827E+03 F= -.14941453E+03 E0= -.14895825E+03  EK= 0.12196E+02 SP= 0.00E+00 SK= 0.00E+00
       N       E                     dE             d eps       ncg     rms          rms(c)
DAV:   1    -0.149486639451E+03   -0.72104E-01   -0.57018E-02   268   0.651E-01    0.113E-02
DAV:   2    -0.149486885004E+03   -0.24555E-03   -0.25601E-03   276   0.540E-02    0.126E-02
DAV:   3    -0.149486891154E+03   -0.61503E-05   -0.14454E-05   155   0.585E-03
   88 T=   747. E= -.13721821E+03 F= -.14948689E+03 E0= -.14903012E+03  EK= 0.12269E+02 SP= 0.00E+00 SK= 0.00E+00
       N       E                     dE             d eps       ncg     rms          rms(c)
DAV:   1    -0.149552333282E+03   -0.65448E-01   -0.74509E-02   156   0.743E-01    0.169E-02
DAV:   2    -0.149552424387E+03   -0.91105E-04   -0.10017E-03   308   0.321E-02    0.838E-03
DAV:   3    -0.149552429221E+03   -0.48343E-05   -0.39003E-05   156   0.101E-02
   89 T=   751. E= -.13721817E+03 F= -.14955243E+03 E0= -.14909525E+03  EK= 0.12334E+02 SP= 0.00E+00 SK= 0.00E+00
       N       E                     dE             d eps       ncg     rms          rms(c)
DAV:   1    -0.149610468355E+03   -0.58044E-01   -0.93675E-02   156   0.835E-01    0.133E-02
DAV:   2    -0.149610493547E+03   -0.25192E-04   -0.39350E-04   300   0.213E-02
   90 T=   755. E= -.13721817E+03 F= -.14961049E+03 E0= -.14915296E+03  EK= 0.12392E+02 SP= 0.00E+00 SK= 0.00E+00
       N       E                     dE             d eps       ncg     rms          rms(c)
DAV:   1    -0.149660740219E+03   -0.50272E-01   -0.32808E-04   291   0.253E-02    0.145E-02
DAV:   2    -0.149660761296E+03   -0.21077E-04   -0.87265E-06   180   0.396E-03
   91 T=   758. E= -.13721817E+03 F= -.14966076E+03 E0= -.14920291E+03  EK= 0.12443E+02 SP= 0.00E+00 SK= 0.00E+00
       N       E                     dE             d eps       ncg     rms          rms(c)
DAV:   1    -0.149702924551E+03   -0.42184E-01   -0.10785E-03   234   0.101E-01    0.102E-02
DAV:   2    -0.149702963702E+03   -0.39151E-04   -0.39278E-04   284   0.265E-02
   92 T=   761. E= -.13721821E+03 F= -.14970296E+03 E0= -.14924487E+03  EK= 0.12485E+02 SP= 0.00E+00 SK= 0.00E+00
       N       E                     dE             d eps       ncg     rms          rms(c)
DAV:   1    -0.149736890135E+03   -0.33966E-01   -0.39503E-03   251   0.194E-01    0.163E-02
DAV:   2    -0.149736936922E+03   -0.46787E-04   -0.52142E-04   284   0.267E-02
   93 T=   763. E= -.13721817E+03 F= -.14973694E+03 E0= -.14927867E+03  EK= 0.12519E+02 SP= 0.00E+00 SK= 0.00E+00
       N       E                     dE             d eps       ncg     rms          rms(c)
DAV:   1    -0.149762764619E+03   -0.25874E-01   -0.88373E-03   155   0.288E-01    0.140E-02
DAV:   2    -0.149762796341E+03   -0.31723E-04   -0.31494E-04   308   0.241E-02
   94 T=   764. E= -.13721815E+03 F= -.14976280E+03 E0= -.14930443E+03  EK= 0.12545E+02 SP= 0.00E+00 SK= 0.00E+00
       N       E                     dE             d eps       ncg     rms          rms(c)
DAV:   1    -0.149780687249E+03   -0.17923E-01   -0.15732E-02   156   0.385E-01    0.109E-02
DAV:   2    -0.149780717756E+03   -0.30507E-04   -0.31545E-04   308   0.214E-02
   95 T=   765. E= -.13721810E+03 F= -.14978072E+03 E0= -.14932232E+03  EK= 0.12563E+02 SP= 0.00E+00 SK= 0.00E+00
       N       E                     dE             d eps       ncg     rms          rms(c)
DAV:   1    -0.149791075161E+03   -0.10388E-01   -0.24576E-02   156   0.481E-01    0.145E-02
DAV:   2    -0.149791109417E+03   -0.34257E-04   -0.32268E-04   316   0.217E-02
   96 T=   766. E= -.13721808E+03 F= -.14979111E+03 E0= -.14933274E+03  EK= 0.12573E+02 SP= 0.00E+00 SK= 0.00E+00
       N       E                     dE             d eps       ncg     rms          rms(c)
DAV:   1    -0.149794242482E+03   -0.31673E-02   -0.35332E-02   180   0.577E-01    0.123E-02
DAV:   2    -0.149794279337E+03   -0.36855E-04   -0.32513E-04   308   0.177E-02
   97 T=   766. E= -.13721805E+03 F= -.14979428E+03 E0= -.14933601E+03  EK= 0.12576E+02 SP= 0.00E+00 SK= 0.00E+00
       N       E                     dE             d eps       ncg     rms          rms(c)
DAV:   1    -0.149790752333E+03    0.34901E-02   -0.48095E-02   204   0.673E-01    0.972E-03
DAV:   2    -0.149790794997E+03   -0.42664E-04   -0.39922E-04   308   0.175E-02
   98 T=   766. E= -.13721806E+03 F= -.14979079E+03 E0= -.14933269E+03  EK= 0.12573E+02 SP= 0.00E+00 SK= 0.00E+00
       N       E                     dE             d eps       ncg     rms          rms(c)
DAV:   1    -0.149781131779E+03    0.96206E-02   -0.62793E-02   204   0.769E-01    0.142E-02
DAV:   2    -0.149781178948E+03   -0.47169E-04   -0.48142E-04   316   0.193E-02
   99 T=   765. E= -.13721804E+03 F= -.14978118E+03 E0= -.14932331E+03  EK= 0.12563E+02 SP= 0.00E+00 SK= 0.00E+00
       N       E                     dE             d eps       ncg     rms          rms(c)
DAV:   1    -0.149765566729E+03    0.15565E-01   -0.82532E-02   452   0.865E-01    0.129E-02
DAV:   2    -0.149766119839E+03   -0.55311E-03   -0.55392E-03   292   0.596E-02    0.893E-03
DAV:   3    -0.149766123527E+03   -0.36882E-05   -0.28755E-05   180   0.790E-03
  100 T=   764. E= -.13721806E+03 F= -.14976612E+03 E0= -.14930854E+03  EK= 0.12548E+02 SP= 0.00E+00 SK= 0.00E+00
       N       E                     dE             d eps       ncg     rms          rms(c)
DAV:   1    -0.149746273006E+03    0.19847E-01   -0.34077E-03   315   0.306E-02    0.152E-02
DAV:   2    -0.149746274227E+03   -0.12208E-05   -0.24873E-05   196   0.854E-03
  101 T=   763. E= -.13721808E+03 F= -.14974627E+03 E0= -.14928902E+03  EK= 0.12528E+02 SP= 0.00E+00 SK= 0.00E+00
       N       E                     dE             d eps       ncg     rms          rms(c)
DAV:   1    -0.149722360087E+03    0.23913E-01   -0.11517E-03   211   0.991E-02    0.218E-02
DAV:   2    -0.149722387549E+03   -0.27462E-04   -0.25984E-04   276   0.208E-02
  102 T=   762. E= -.13721809E+03 F= -.14972239E+03 E0= -.14926553E+03  EK= 0.12504E+02 SP= 0.00E+00 SK= 0.00E+00
       N       E                     dE             d eps       ncg     rms          rms(c)
DAV:   1    -0.149695197123E+03    0.27163E-01   -0.44877E-03   148   0.195E-01    0.129E-02
DAV:   2    -0.149695205236E+03   -0.81134E-05   -0.11861E-04   252   0.165E-02
  103 T=   760. E= -.13721808E+03 F= -.14969521E+03 E0= -.14923880E+03  EK= 0.12477E+02 SP= 0.00E+00 SK= 0.00E+00
       N       E                     dE             d eps       ncg     rms          rms(c)
DAV:   1    -0.149665224585E+03    0.29973E-01   -0.99727E-03   148   0.292E-01    0.257E-02
DAV:   2    -0.149665247477E+03   -0.22892E-04   -0.39761E-04   292   0.268E-02
  104 T=   758. E= -.13721803E+03 F= -.14966525E+03 E0= -.14920929E+03  EK= 0.12447E+02 SP= 0.00E+00 SK= 0.00E+00
       N       E                     dE             d eps       ncg     rms          rms(c)
DAV:   1    -0.149633188976E+03    0.32036E-01   -0.17626E-02   196   0.388E-01    0.115E-02
DAV:   2    -0.149633211235E+03   -0.22259E-04   -0.34540E-04   300   0.299E-02
  105 T=   756. E= -.13721805E+03 F= -.14963321E+03 E0= -.14917777E+03  EK= 0.12415E+02 SP= 0.00E+00 SK= 0.00E+00
       N       E                     dE             d eps       ncg     rms          rms(c)
DAV:   1    -0.149599744440E+03    0.33445E-01   -0.27887E-02   156   0.486E-01    0.186E-02
DAV:   2    -0.149599779078E+03   -0.34638E-04   -0.57805E-04   316   0.326E-02
  106 T=   754. E= -.13721810E+03 F= -.14959978E+03 E0= -.14914488E+03  EK= 0.12382E+02 SP= 0.00E+00 SK= 0.00E+00
       N       E                     dE             d eps       ncg     rms          rms(c)
DAV:   1    -0.149565172093E+03    0.34572E-01   -0.40186E-02   220   0.583E-01    0.243E-02
DAV:   2    -0.149565281203E+03   -0.10911E-03   -0.11107E-03   300   0.479E-02    0.156E-02
DAV:   3    -0.149565282733E+03   -0.15301E-05   -0.10845E-05   156   0.599E-03
  107 T=   752. E= -.13721810E+03 F= -.14956528E+03 E0= -.14911095E+03  EK= 0.12347E+02 SP= 0.00E+00 SK= 0.00E+00
       N       E                     dE             d eps       ncg     rms          rms(c)
DAV:   1    -0.149530066446E+03    0.35215E-01   -0.54333E-02   179   0.676E-01    0.207E-02
DAV:   2    -0.149530106724E+03   -0.40278E-04   -0.49840E-04   316   0.286E-02
  108 T=   750. E= -.13721812E+03 F= -.14953011E+03 E0= -.14907634E+03  EK= 0.12312E+02 SP= 0.00E+00 SK= 0.00E+00
       N       E                     dE             d eps       ncg     rms          rms(c)
DAV:   1    -0.149494604391E+03    0.35462E-01   -0.70802E-02   148   0.771E-01    0.185E-02
DAV:   2    -0.149494635464E+03   -0.31073E-04   -0.40582E-04   308   0.233E-02
  109 T=   748. E= -.13721811E+03 F= -.14949464E+03 E0= -.14904146E+03  EK= 0.12277E+02 SP= 0.00E+00 SK= 0.00E+00
       N       E                     dE             d eps       ncg     rms          rms(c)
DAV:   1    -0.149459128400E+03    0.35476E-01   -0.89468E-02   172   0.866E-01    0.895E-03
DAV:   2    -0.149459162520E+03   -0.34120E-04   -0.38441E-04   308   0.186E-02
  110 T=   746. E= -.13721811E+03 F= -.14945916E+03 E0= -.14900659E+03  EK= 0.12241E+02 SP= 0.00E+00 SK= 0.00E+00
       N       E                     dE             d eps       ncg     rms          rms(c)
DAV:   1    -0.149423845289E+03    0.35283E-01   -0.21986E-04   292   0.157E-02    0.145E-02
DAV:   2    -0.149423839223E+03    0.60662E-05   -0.81032E-06   164   0.497E-03
  111 T=   744. E= -.13721811E+03 F= -.14942384E+03 E0= -.14897188E+03  EK= 0.12206E+02 SP= 0.00E+00 SK= 0.00E+00
       N       E                     dE             d eps       ncg     rms          rms(c)
DAV:   1    -0.149388803924E+03    0.35041E-01   -0.91855E-04   228   0.974E-02    0.141E-02
DAV:   2    -0.149388822408E+03   -0.18484E-04   -0.23125E-04   276   0.196E-02
  112 T=   741. E= -.13721813E+03 F= -.14938882E+03 E0= -.14893747E+03  EK= 0.12171E+02 SP= 0.00E+00 SK= 0.00E+00
       N       E                     dE             d eps       ncg     rms          rms(c)
DAV:   1    -0.149354069545E+03    0.34734E-01   -0.35992E-03   172   0.191E-01    0.961E-03
DAV:   2    -0.149354093904E+03   -0.24359E-04   -0.27969E-04   292   0.172E-02
  113 T=   739. E= -.13721815E+03 F= -.14935409E+03 E0= -.14890334E+03  EK= 0.12136E+02 SP= 0.00E+00 SK= 0.00E+00
       N       E                     dE             d eps       ncg     rms          rms(c)
DAV:   1    -0.149319801434E+03    0.34268E-01   -0.80821E-03   156   0.286E-01    0.132E-02
DAV:   2    -0.149319834342E+03   -0.32908E-04   -0.39277E-04   316   0.233E-02
  114 T=   737. E= -.13721820E+03 F= -.14931983E+03 E0= -.14886968E+03  EK= 0.12102E+02 SP= 0.00E+00 SK= 0.00E+00
       N       E                     dE             d eps       ncg     rms          rms(c)
DAV:   1    -0.149286181914E+03    0.33620E-01   -0.14556E-02   364   0.379E-01    0.145E-02
DAV:   2    -0.149286288589E+03   -0.10668E-03   -0.11029E-03   316   0.274E-02    0.959E-03
DAV:   3    -0.149286288350E+03    0.23929E-06   -0.76832E-06   156   0.409E-03
  115 T=   735. E= -.13721829E+03 F= -.14928629E+03 E0= -.14883674E+03  EK= 0.12068E+02 SP= 0.00E+00 SK= 0.00E+00
       N       E                     dE             d eps       ncg     rms          rms(c)
DAV:   1    -0.149253316396E+03    0.32972E-01   -0.22222E-02   147   0.472E-01    0.168E-02
DAV:   2    -0.149253351295E+03   -0.34899E-04   -0.42156E-04   324   0.210E-02
  116 T=   733. E= -.13721823E+03 F= -.14925335E+03 E0= -.14880439E+03  EK= 0.12035E+02 SP= 0.00E+00 SK= 0.00E+00
       N       E                     dE             d eps       ncg     rms          rms(c)
DAV:   1    -0.149221206445E+03    0.32110E-01   -0.31871E-02   147   0.564E-01    0.684E-03
DAV:   2    -0.149221222967E+03   -0.16522E-04   -0.19912E-04   300   0.168E-02
  117 T=   731. E= -.13721820E+03 F= -.14922122E+03 E0= -.14877284E+03  EK= 0.12003E+02 SP= 0.00E+00 SK= 0.00E+00
       N       E                     dE             d eps       ncg     rms          rms(c)
DAV:   1    -0.149190033005E+03    0.31173E-01   -0.43439E-02   171   0.656E-01    0.827E-03
DAV:   2    -0.149190062245E+03   -0.29240E-04   -0.35099E-04   308   0.209E-02
  118 T=   729. E= -.13721814E+03 F= -.14919006E+03 E0= -.14874223E+03  EK= 0.11972E+02 SP= 0.00E+00 SK= 0.00E+00
       N       E                     dE             d eps       ncg     rms          rms(c)
DAV:   1    -0.149160210177E+03    0.29823E-01   -0.56729E-02   172   0.747E-01    0.896E-03
DAV:   2    -0.149160249675E+03   -0.39498E-04   -0.44165E-04   308   0.247E-02
  119 T=   727. E= -.13721813E+03 F= -.14916025E+03 E0= -.14871296E+03  EK= 0.11942E+02 SP= 0.00E+00 SK= 0.00E+00
       N       E                     dE             d eps       ncg     rms          rms(c)
DAV:   1    -0.149131930078E+03    0.28280E-01   -0.71773E-02   180   0.836E-01    0.651E-03
DAV:   2    -0.149131976373E+03   -0.46295E-04   -0.47839E-04   308   0.205E-02
  120 T=   726. E= -.13721816E+03 F= -.14913198E+03 E0= -.14868522E+03  EK= 0.11914E+02 SP= 0.00E+00 SK= 0.00E+00
       N       E                     dE             d eps       ncg     rms          rms(c)
DAV:   1    -0.149105457598E+03    0.26472E-01   -0.27799E-04   308   0.198E-02    0.648E-03
DAV:   2    -0.149105455949E+03    0.16489E-05   -0.28543E-06   164   0.244E-03
  121 T=   724. E= -.13721817E+03 F= -.14910546E+03 E0= -.14865919E+03  EK= 0.11887E+02 SP= 0.00E+00 SK= 0.00E+00
       N       E                     dE             d eps       ncg     rms          rms(c)
DAV:   1    -0.149081154277E+03    0.24303E-01   -0.10942E-03   284   0.922E-02    0.546E-03
DAV:   2    -0.149081168050E+03   -0.13772E-04   -0.14866E-04   244   0.147E-02
  122 T=   723. E= -.13721816E+03 F= -.14908117E+03 E0= -.14863538E+03  EK= 0.11863E+02 SP= 0.00E+00 SK= 0.00E+00
       N       E                     dE             d eps       ncg     rms          rms(c)
DAV:   1    -0.149059631995E+03    0.21522E-01   -0.43056E-03   180   0.182E-01    0.700E-03
DAV:   2    -0.149059650177E+03   -0.18182E-04   -0.20367E-04   300   0.152E-02
  123 T=   721. E= -.13721813E+03 F= -.14905965E+03 E0= -.14861432E+03  EK= 0.11842E+02 SP= 0.00E+00 SK= 0.00E+00
       N       E                     dE             d eps       ncg     rms          rms(c)
DAV:   1    -0.149041525126E+03    0.18107E-01   -0.96995E-03   156   0.271E-01    0.562E-03
DAV:   2    -0.149041550182E+03   -0.25055E-04   -0.26746E-04   332   0.178E-02
  124 T=   720. E= -.13721814E+03 F= -.14904155E+03 E0= -.14859664E+03  EK= 0.11823E+02 SP= 0.00E+00 SK= 0.00E+00
       N       E                     dE             d eps       ncg     rms          rms(c)
DAV:   1    -0.149027404217E+03    0.14121E-01   -0.17278E-02   156   0.359E-01    0.583E-03
DAV:   2    -0.149027426336E+03   -0.22119E-04   -0.23035E-04   308   0.136E-02
  125 T=   719. E= -.13721809E+03 F= -.14902743E+03 E0= -.14858291E+03  EK= 0.11809E+02 SP= 0.00E+00 SK= 0.00E+00
       N       E                     dE             d eps       ncg     rms          rms(c)
DAV:   1    -0.149017921469E+03    0.94827E-02   -0.27095E-02   156   0.447E-01    0.639E-03
DAV:   2    -0.149017956143E+03   -0.34674E-04   -0.35249E-04   324   0.172E-02
  126 T=   719. E= -.13721809E+03 F= -.14901796E+03 E0= -.14857380E+03  EK= 0.11800E+02 SP= 0.00E+00 SK= 0.00E+00
       N       E                     dE             d eps       ncg     rms          rms(c)
DAV:   1    -0.149013385672E+03    0.45358E-02   -0.39862E-02   404   0.535E-01    0.590E-03
DAV:   2    -0.149013568050E+03   -0.18238E-03   -0.18385E-03   308   0.315E-02    0.354E-03
DAV:   3    -0.149013568694E+03   -0.64366E-06   -0.95790E-06   156   0.435E-03
  127 T=   719. E= -.13721805E+03 F= -.14901357E+03 E0= -.14856974E+03  EK= 0.11796E+02 SP= 0.00E+00 SK= 0.00E+00
       N       E                     dE             d eps       ncg     rms          rms(c)
DAV:   1    -0.149014811411E+03   -0.12434E-02   -0.53625E-02   243   0.621E-01    0.571E-03
DAV:   2    -0.149014892263E+03   -0.80853E-04   -0.82060E-04   316   0.196E-02
  128 T=   719. E= -.13721800E+03 F= -.14901489E+03 E0= -.14857135E+03  EK= 0.11797E+02 SP= 0.00E+00 SK= 0.00E+00
       N       E                     dE             d eps       ncg     rms          rms(c)
DAV:   1    -0.149022375886E+03   -0.75645E-02   -0.70514E-02   155   0.707E-01    0.768E-03
DAV:   2    -0.149022400555E+03   -0.24669E-04   -0.26056E-04   316   0.164E-02
  129 T=   719. E= -.13721798E+03 F= -.14902240E+03 E0= -.14857911E+03  EK= 0.11804E+02 SP= 0.00E+00 SK= 0.00E+00
       N       E                     dE             d eps       ncg     rms          rms(c)
DAV:   1    -0.149036260118E+03   -0.13884E-01   -0.89902E-02   155   0.791E-01    0.306E-03
DAV:   2    -0.149036286268E+03   -0.26151E-04   -0.26806E-04   300   0.168E-02
  130 T=   720. E= -.13721798E+03 F= -.14903629E+03 E0= -.14859321E+03  EK= 0.11818E+02 SP= 0.00E+00 SK= 0.00E+00
       N       E                     dE             d eps       ncg     rms          rms(c)
DAV:   1    -0.149056708496E+03   -0.20448E-01   -0.22115E-04   300   0.160E-02    0.662E-03
DAV:   2    -0.149056708365E+03    0.13100E-06   -0.50241E-06   172   0.308E-03
  131 T=   721. E= -.13721797E+03 F= -.14905671E+03 E0= -.14861380E+03  EK= 0.11839E+02 SP= 0.00E+00 SK= 0.00E+00
       N       E                     dE             d eps       ncg     rms          rms(c)
DAV:   1    -0.149083618743E+03   -0.26910E-01   -0.13988E-03   204   0.888E-02    0.366E-03
DAV:   2    -0.149083630573E+03   -0.11831E-04   -0.12746E-04   228   0.143E-02
  132 T=   723. E= -.13721797E+03 F= -.14908363E+03 E0= -.14864085E+03  EK= 0.11866E+02 SP= 0.00E+00 SK= 0.00E+00
       N       E                     dE             d eps       ncg     rms          rms(c)
DAV:   1    -0.149116842062E+03   -0.33223E-01   -0.54805E-03   148   0.174E-01    0.516E-03
DAV:   2    -0.149116858343E+03   -0.16280E-04   -0.18300E-04   308   0.162E-02
  133 T=   725. E= -.13721802E+03 F= -.14911686E+03 E0= -.14867416E+03  EK= 0.11899E+02 SP= 0.00E+00 SK= 0.00E+00
       N       E                     dE             d eps       ncg     rms          rms(c)
DAV:   1    -0.149155849177E+03   -0.39007E-01   -0.12342E-02   148   0.260E-01    0.558E-03
DAV:   2    -0.149155877170E+03   -0.27993E-04   -0.28515E-04   316   0.220E-02
  134 T=   727. E= -.13721803E+03 F= -.14915588E+03 E0= -.14871322E+03  EK= 0.11938E+02 SP= 0.00E+00 SK= 0.00E+00
       N       E                     dE             d eps       ncg     rms          rms(c)
DAV:   1    -0.149200306062E+03   -0.44457E-01   -0.22095E-02   156   0.346E-01    0.541E-03
DAV:   2    -0.149200329846E+03   -0.23785E-04   -0.24947E-04   324   0.168E-02
  135 T=   730. E= -.13721806E+03 F= -.14920033E+03 E0= -.14875768E+03  EK= 0.11982E+02 SP= 0.00E+00 SK= 0.00E+00
       N       E                     dE             d eps       ncg     rms          rms(c)
DAV:   1    -0.149249484781E+03   -0.49179E-01   -0.34963E-02   412   0.431E-01    0.531E-03
DAV:   2    -0.149249610585E+03   -0.12580E-03   -0.12737E-03   284   0.283E-02    0.289E-03
DAV:   3    -0.149249610911E+03   -0.32540E-06   -0.67826E-06   156   0.365E-03
  136 T=   733. E= -.13721817E+03 F= -.14924961E+03 E0= -.14880692E+03  EK= 0.12031E+02 SP= 0.00E+00 SK= 0.00E+00
       N       E                     dE             d eps       ncg     rms          rms(c)
DAV:   1    -0.149302647005E+03   -0.53036E-01   -0.49793E-02   227   0.516E-01    0.472E-03
DAV:   2    -0.149302689907E+03   -0.42902E-04   -0.43580E-04   308   0.162E-02
  137 T=   736. E= -.13721820E+03 F= -.14930269E+03 E0= -.14885992E+03  EK= 0.12084E+02 SP= 0.00E+00 SK= 0.00E+00
       N       E                     dE             d eps       ncg     rms          rms(c)
DAV:   1    -0.149358867736E+03   -0.56221E-01   -0.67943E-02   155   0.601E-01    0.543E-03
DAV:   2    -0.149358877973E+03   -0.10237E-04   -0.11313E-04   268   0.125E-02
  138 T=   740. E= -.13721832E+03 F= -.14935888E+03 E0= -.14891598E+03  EK= 0.12141E+02 SP= 0.00E+00 SK= 0.00E+00
       N       E                     dE             d eps       ncg     rms          rms(c)
DAV:   1    -0.149417100670E+03   -0.58233E-01   -0.88679E-02   156   0.685E-01    0.283E-03
DAV:   2    -0.149417116738E+03   -0.16068E-04   -0.16600E-04   292   0.159E-02
  139 T=   743. E= -.13721837E+03 F= -.14941712E+03 E0= -.14897407E+03  EK= 0.12199E+02 SP= 0.00E+00 SK= 0.00E+00
       N       E                     dE             d eps       ncg     rms          rms(c)
DAV:   1    -0.149476482741E+03   -0.59382E-01   -0.11195E-01   155   0.768E-01    0.535E-03
DAV:   2    -0.149476502130E+03   -0.19389E-04   -0.20362E-04   308   0.166E-02
  140 T=   747. E= -.13721846E+03 F= -.14947650E+03 E0= -.14903327E+03  EK= 0.12258E+02 SP= 0.00E+00 SK= 0.00E+00
       N       E                     dE             d eps       ncg     rms          rms(c)
DAV:   1    -0.149535779903E+03   -0.59297E-01   -0.14185E-04   268   0.157E-02    0.401E-03
DAV:   2    -0.149535779990E+03   -0.86732E-07   -0.51669E-06   172   0.406E-03
  141 T=   750. E= -.13721851E+03 F= -.14953578E+03 E0= -.14909232E+03  EK= 0.12317E+02 SP= 0.00E+00 SK= 0.00E+00
       N       E                     dE             d eps       ncg     rms          rms(c)
DAV:   1    -0.149593949338E+03   -0.58169E-01   -0.11798E-03   220   0.877E-02    0.288E-03
DAV:   2    -0.149593959285E+03   -0.99461E-05   -0.10204E-04   236   0.117E-02
  142 T=   754. E= -.13721862E+03 F= -.14959396E+03 E0= -.14915025E+03  EK= 0.12375E+02 SP= 0.00E+00 SK= 0.00E+00
       N       E                     dE             d eps       ncg     rms          rms(c)
DAV:   1    -0.149649938480E+03   -0.55989E-01   -0.46766E-03   172   0.174E-01    0.466E-03
DAV:   2    -0.149649956231E+03   -0.17751E-04   -0.18144E-04   300   0.146E-02
  143 T=   757. E= -.13721871E+03 F= -.14964996E+03 E0= -.14920596E+03  EK= 0.12431E+02 SP= 0.00E+00 SK= 0.00E+00
       N       E                     dE             d eps       ncg     rms          rms(c)
DAV:   1    -0.149702809633E+03   -0.52871E-01   -0.10431E-02   172   0.260E-01    0.317E-03
DAV:   2    -0.149702828606E+03   -0.18973E-04   -0.19158E-04   300   0.147E-02
  144 T=   760. E= -.13721883E+03 F= -.14970283E+03 E0= -.14925853E+03  EK= 0.12484E+02 SP= 0.00E+00 SK= 0.00E+00
       N       E                     dE             d eps       ncg     rms          rms(c)
DAV:   1    -0.149751615776E+03   -0.48806E-01   -0.18449E-02   180   0.347E-01    0.305E-03
DAV:   2    -0.149751635899E+03   -0.20123E-04   -0.20377E-04   300   0.141E-02
  145 T=   763. E= -.13721893E+03 F= -.14975164E+03 E0= -.14930701E+03  EK= 0.12533E+02 SP= 0.00E+00 SK= 0.00E+00
       N       E                     dE             d eps       ncg     rms          rms(c)
DAV:   1    -0.149795576088E+03   -0.43960E-01   -0.28612E-02   180   0.433E-01    0.373E-03
DAV:   2    -0.149795601401E+03   -0.25312E-04   -0.25521E-04   308   0.139E-02
  146 T=   766. E= -.13721899E+03 F= -.14979560E+03 E0= -.14935062E+03  EK= 0.12577E+02 SP= 0.00E+00 SK= 0.00E+00
       N       E                     dE             d eps       ncg     rms          rms(c)
DAV:   1    -0.149834052082E+03   -0.38476E-01   -0.40851E-02   204   0.519E-01    0.331E-03
DAV:   2    -0.149834085288E+03   -0.33206E-04   -0.33353E-04   308   0.146E-02
  147 T=   768. E= -.13721909E+03 F= -.14983409E+03 E0= -.14938873E+03  EK= 0.12615E+02 SP= 0.00E+00 SK= 0.00E+00
       N       E                     dE             d eps       ncg     rms          rms(c)
DAV:   1    -0.149866154834E+03   -0.32103E-01   -0.55979E-02   452   0.606E-01    0.367E-03
DAV:   2    -0.149866402864E+03   -0.24803E-03   -0.24904E-03   292   0.385E-02    0.202E-03
DAV:   3    -0.149866403747E+03   -0.88308E-06   -0.10959E-05   180   0.469E-03
  148 T=   770. E= -.13721918E+03 F= -.14986640E+03 E0= -.14942065E+03  EK= 0.12647E+02 SP= 0.00E+00 SK= 0.00E+00
       N       E                     dE             d eps       ncg     rms          rms(c)
DAV:   1    -0.149891894379E+03   -0.25492E-01   -0.71206E-02   251   0.691E-01    0.457E-03
DAV:   2    -0.149892025540E+03   -0.13116E-03   -0.13257E-03   300   0.221E-02    0.242E-03
DAV:   3    -0.149892026046E+03   -0.50558E-06   -0.66263E-06   180   0.379E-03
  149 T=   772. E= -.13721920E+03 F= -.14989203E+03 E0= -.14944587E+03  EK= 0.12673E+02 SP= 0.00E+00 SK= 0.00E+00
       N       E                     dE             d eps       ncg     rms          rms(c)
DAV:   1    -0.149910883566E+03   -0.18858E-01   -0.88995E-02   155   0.776E-01    0.286E-03
DAV:   2    -0.149910898259E+03   -0.14693E-04   -0.15286E-04   292   0.127E-02
  150 T=   773. E= -.13721928E+03 F= -.14991090E+03 E0= -.14946430E+03  EK= 0.12692E+02 SP= 0.00E+00 SK= 0.00E+00
       N       E                     dE             d eps       ncg     rms          rms(c)
DAV:   1    -0.149922877539E+03   -0.11994E-01   -0.12369E-04   268   0.124E-02    0.273E-03
DAV:   2    -0.149922877976E+03   -0.43769E-06   -0.65012E-06   156   0.365E-03
  151 T=   774. E= -.13721927E+03 F= -.14992288E+03 E0= -.14947583E+03  EK= 0.12704E+02 SP= 0.00E+00 SK= 0.00E+00
       N       E                     dE             d eps       ncg     rms          rms(c)
DAV:   1    -0.149928083653E+03   -0.52061E-02   -0.11463E-03   172   0.894E-02    0.250E-03
DAV:   2    -0.149928090779E+03   -0.71261E-05   -0.72775E-05   204   0.114E-02
  152 T=   774. E= -.13721924E+03 F= -.14992809E+03 E0= -.14948058E+03  EK= 0.12709E+02 SP= 0.00E+00 SK= 0.00E+00
       N       E                     dE             d eps       ncg     rms          rms(c)
DAV:   1    -0.149926768108E+03    0.13155E-02   -0.45197E-03   172   0.177E-01    0.349E-03
DAV:   2    -0.149926788742E+03   -0.20634E-04   -0.20997E-04   308   0.156E-02
  153 T=   774. E= -.13721929E+03 F= -.14992679E+03 E0= -.14947878E+03  EK= 0.12707E+02 SP= 0.00E+00 SK= 0.00E+00
       N       E                     dE             d eps       ncg     rms          rms(c)
DAV:   1    -0.149919346225E+03    0.74219E-02   -0.10045E-02   180   0.265E-01    0.252E-03
DAV:   2    -0.149919365891E+03   -0.19667E-04   -0.20137E-04   292   0.158E-02
  154 T=   774. E= -.13721932E+03 F= -.14991937E+03 E0= -.14947084E+03  EK= 0.12700E+02 SP= 0.00E+00 SK= 0.00E+00
       N       E                     dE             d eps       ncg     rms          rms(c)
DAV:   1    -0.149906568860E+03    0.12777E-01   -0.17697E-02   180   0.353E-01    0.303E-03
DAV:   2    -0.149906585453E+03   -0.16593E-04   -0.16882E-04   284   0.141E-02
  155 T=   773. E= -.13721927E+03 F= -.14990659E+03 E0= -.14945752E+03  EK= 0.12687E+02 SP= 0.00E+00 SK= 0.00E+00
       N       E                     dE             d eps       ncg     rms          rms(c)
DAV:   1    -0.149889226794E+03    0.17342E-01   -0.27309E-02   172   0.441E-01    0.308E-03
DAV:   2    -0.149889246115E+03   -0.19321E-04   -0.19449E-04   292   0.153E-02
  156 T=   772. E= -.13721918E+03 F= -.14988925E+03 E0= -.14943963E+03  EK= 0.12670E+02 SP= 0.00E+00 SK= 0.00E+00
       N       E                     dE             d eps       ncg     rms          rms(c)
DAV:   1    -0.149868238753E+03    0.20988E-01   -0.38859E-02   170   0.528E-01    0.224E-03
DAV:   2    -0.149868254216E+03   -0.15463E-04   -0.15629E-04   276   0.142E-02
  157 T=   771. E= -.13721924E+03 F= -.14986825E+03 E0= -.14941806E+03  EK= 0.12649E+02 SP= 0.00E+00 SK= 0.00E+00
       N       E                     dE             d eps       ncg     rms          rms(c)
DAV:   1    -0.149844275742E+03    0.23963E-01   -0.52256E-02   171   0.615E-01    0.285E-03
DAV:   2    -0.149844296778E+03   -0.21036E-04   -0.21264E-04   292   0.161E-02
  158 T=   769. E= -.13721920E+03 F= -.14984430E+03 E0= -.14939350E+03  EK= 0.12625E+02 SP= 0.00E+00 SK= 0.00E+00
       N       E                     dE             d eps       ncg     rms          rms(c)
DAV:   1    -0.149818319875E+03    0.25956E-01   -0.67489E-02   172   0.702E-01    0.308E-03
DAV:   2    -0.149818348880E+03   -0.29004E-04   -0.29064E-04   292   0.163E-02
  159 T=   767. E= -.13721910E+03 F= -.14981835E+03 E0= -.14936693E+03  EK= 0.12599E+02 SP= 0.00E+00 SK= 0.00E+00
       N       E                     dE             d eps       ncg     rms          rms(c)
DAV:   1    -0.149791299757E+03    0.27020E-01   -0.85784E-02   444   0.789E-01    0.397E-03
DAV:   2    -0.149791631834E+03   -0.33208E-03   -0.33342E-03   300   0.450E-02    0.201E-03
DAV:   3    -0.149791633137E+03   -0.13023E-05   -0.15256E-05   180   0.544E-03
  160 T=   766. E= -.13721911E+03 F= -.14979163E+03 E0= -.14933958E+03  EK= 0.12573E+02 SP= 0.00E+00 SK= 0.00E+00
       N       E                     dE             d eps       ncg     rms          rms(c)
DAV:   1    -0.149765051494E+03    0.26580E-01   -0.75738E-04   323   0.171E-02    0.295E-03
DAV:   2    -0.149765051439E+03    0.55304E-07   -0.33139E-06   172   0.257E-03
  161 T=   764. E= -.13721909E+03 F= -.14976505E+03 E0= -.14931235E+03  EK= 0.12546E+02 SP= 0.00E+00 SK= 0.00E+00
       N       E                     dE             d eps       ncg     rms          rms(c)
DAV:   1    -0.149739548054E+03    0.25503E-01   -0.91527E-04   204   0.905E-02    0.308E-03
DAV:   2    -0.149739555235E+03   -0.71804E-05   -0.72528E-05   196   0.110E-02
  162 T=   763. E= -.13721903E+03 F= -.14973956E+03 E0= -.14928619E+03  EK= 0.12521E+02 SP= 0.00E+00 SK= 0.00E+00
       N       E                     dE             d eps       ncg     rms          rms(c)
DAV:   1    -0.149716006513E+03    0.23542E-01   -0.36096E-03   156   0.180E-01    0.267E-03
DAV:   2    -0.149716021779E+03   -0.15266E-04   -0.15443E-04   268   0.153E-02
  163 T=   761. E= -.13721895E+03 F= -.14971602E+03 E0= -.14926198E+03  EK= 0.12497E+02 SP= 0.00E+00 SK= 0.00E+00
       N       E                     dE             d eps       ncg     rms          rms(c)
DAV:   1    -0.149695136416E+03    0.20870E-01   -0.80544E-03   154   0.269E-01    0.319E-03
DAV:   2    -0.149695154668E+03   -0.18253E-04   -0.18651E-04   292   0.171E-02
  164 T=   760. E= -.13721890E+03 F= -.14969515E+03 E0= -.14924044E+03  EK= 0.12476E+02 SP= 0.00E+00 SK= 0.00E+00
       N       E                     dE             d eps       ncg     rms          rms(c)
DAV:   1    -0.149677425250E+03    0.17711E-01   -0.14341E-02   180   0.358E-01    0.306E-03
DAV:   2    -0.149677440577E+03   -0.15328E-04   -0.15284E-04   276   0.143E-02
  165 T=   759. E= -.13721884E+03 F= -.14967744E+03 E0= -.14922206E+03  EK= 0.12459E+02 SP= 0.00E+00 SK= 0.00E+00
       N       E                     dE             d eps       ncg     rms          rms(c)
DAV:   1    -0.149663361302E+03    0.14064E-01   -0.22412E-02   156   0.447E-01    0.289E-03
DAV:   2    -0.149663375396E+03   -0.14094E-04   -0.14111E-04   260   0.144E-02
  166 T=   758. E= -.13721882E+03 F= -.14966338E+03 E0= -.14920733E+03  EK= 0.12445E+02 SP= 0.00E+00 SK= 0.00E+00
       N       E                     dE             d eps       ncg     rms          rms(c)
DAV:   1    -0.149653072836E+03    0.10288E-01   -0.32346E-02   156   0.536E-01    0.275E-03
DAV:   2    -0.149653093096E+03   -0.20259E-04   -0.20366E-04   284   0.167E-02
  167 T=   757. E= -.13721871E+03 F= -.14965309E+03 E0= -.14919640E+03  EK= 0.12434E+02 SP= 0.00E+00 SK= 0.00E+00
       N       E                     dE             d eps       ncg     rms          rms(c)
DAV:   1    -0.149646843839E+03    0.62290E-02   -0.44215E-02   156   0.625E-01    0.310E-03
DAV:   2    -0.149646868973E+03   -0.25134E-04   -0.25154E-04   324   0.176E-02
  168 T=   757. E= -.13721871E+03 F= -.14964687E+03 E0= -.14918954E+03  EK= 0.12428E+02 SP= 0.00E+00 SK= 0.00E+00
       N       E                     dE             d eps       ncg     rms          rms(c)
DAV:   1    -0.149644474379E+03    0.23695E-02   -0.58416E-02   180   0.714E-01    0.313E-03
DAV:   2    -0.149644501171E+03   -0.26792E-04   -0.26652E-04   316   0.152E-02
  169 T=   757. E= -.13721869E+03 F= -.14964450E+03 E0= -.14918657E+03  EK= 0.12426E+02 SP= 0.00E+00 SK= 0.00E+00
       N       E                     dE             d eps       ncg     rms          rms(c)
DAV:   1    -0.149645412080E+03   -0.93770E-03   -0.76164E-02   442   0.803E-01    0.385E-03
DAV:   2    -0.149645718301E+03   -0.30622E-03   -0.30709E-03   308   0.397E-02    0.230E-03
DAV:   3    -0.149645719461E+03   -0.11598E-05   -0.13740E-05   156   0.509E-03
  170 T=   757. E= -.13721862E+03 F= -.14964572E+03 E0= -.14918721E+03  EK= 0.12427E+02 SP= 0.00E+00 SK= 0.00E+00
       N       E                     dE             d eps       ncg     rms          rms(c)
DAV:   1    -0.149650359262E+03   -0.46410E-02   -0.14577E-03   306   0.199E-02    0.311E-03
DAV:   2    -0.149650359450E+03   -0.18742E-06   -0.50432E-06   164   0.309E-03
  171 T=   757. E= -.13721857E+03 F= -.14965036E+03 E0= -.14919132E+03  EK= 0.12432E+02 SP= 0.00E+00 SK= 0.00E+00
       N       E                     dE             d eps       ncg     rms          rms(c)
DAV:   1    -0.149658023724E+03   -0.76645E-02   -0.92981E-04   186   0.935E-02    0.320E-03
DAV:   2    -0.149658029892E+03   -0.61678E-05   -0.60136E-05   172   0.108E-02
  172 T=   758. E= -.13721853E+03 F= -.14965803E+03 E0= -.14919850E+03  EK= 0.12440E+02 SP= 0.00E+00 SK= 0.00E+00
       N       E                     dE             d eps       ncg     rms          rms(c)
DAV:   1    -0.149668144289E+03   -0.10121E-01   -0.37019E-03   172   0.186E-01    0.320E-03
DAV:   2    -0.149668153654E+03   -0.93644E-05   -0.93958E-05   236   0.141E-02
  173 T=   758. E= -.13721856E+03 F= -.14966815E+03 E0= -.14920818E+03  EK= 0.12450E+02 SP= 0.00E+00 SK= 0.00E+00
       N       E                     dE             d eps       ncg     rms          rms(c)
DAV:   1    -0.149679907089E+03   -0.11763E-01   -0.83059E-03   155   0.278E-01    0.301E-03
DAV:   2    -0.149679920712E+03   -0.13623E-04   -0.13894E-04   252   0.169E-02
  174 T=   759. E= -.13721851E+03 F= -.14967992E+03 E0= -.14921956E+03  EK= 0.12461E+02 SP= 0.00E+00 SK= 0.00E+00
       N       E                     dE             d eps       ncg     rms          rms(c)
DAV:   1    -0.149692576357E+03   -0.12669E-01   -0.14838E-02   156   0.371E-01    0.338E-03
DAV:   2    -0.149692596137E+03   -0.19780E-04   -0.19470E-04   284   0.166E-02
  175 T=   760. E= -.13721848E+03 F= -.14969260E+03 E0= -.14923190E+03  EK= 0.12474E+02 SP= 0.00E+00 SK= 0.00E+00
       N       E                     dE             d eps       ncg     rms          rms(c)
DAV:   1    -0.149705362415E+03   -0.12786E-01   -0.23307E-02   164   0.464E-01    0.369E-03
DAV:   2    -0.149705375362E+03   -0.12947E-04   -0.12972E-04   252   0.138E-02
  176 T=   761. E= -.13721854E+03 F= -.14970538E+03 E0= -.14924442E+03  EK= 0.12487E+02 SP= 0.00E+00 SK= 0.00E+00
       N       E                     dE             d eps       ncg     rms          rms(c)
DAV:   1    -0.149717199117E+03   -0.11837E-01   -0.33814E-02   156   0.558E-01    0.276E-03
DAV:   2    -0.149717215392E+03   -0.16274E-04   -0.16380E-04   268   0.159E-02
  177 T=   761. E= -.13721858E+03 F= -.14971722E+03 E0= -.14925605E+03  EK= 0.12499E+02 SP= 0.00E+00 SK= 0.00E+00
       N       E                     dE             d eps       ncg     rms          rms(c)
DAV:   1    -0.149727141015E+03   -0.99419E-02   -0.46370E-02   180   0.651E-01    0.384E-03
DAV:   2    -0.149727162085E+03   -0.21070E-04   -0.20788E-04   316   0.177E-02
  178 T=   762. E= -.13721860E+03 F= -.14972716E+03 E0= -.14926587E+03  EK= 0.12509E+02 SP= 0.00E+00 SK= 0.00E+00
       N       E                     dE             d eps       ncg     rms          rms(c)
DAV:   1    -0.149734323984E+03   -0.71830E-02   -0.61052E-02   148   0.744E-01    0.326E-03
DAV:   2    -0.149734339243E+03   -0.15259E-04   -0.14898E-04   292   0.152E-02
  179 T=   762. E= -.13721870E+03 F= -.14973434E+03 E0= -.14927298E+03  EK= 0.12516E+02 SP= 0.00E+00 SK= 0.00E+00
       N       E                     dE             d eps       ncg     rms          rms(c)
DAV:   1    -0.149737526876E+03   -0.32029E-02   -0.77828E-02   172   0.838E-01    0.328E-03
DAV:   2    -0.149737546953E+03   -0.20077E-04   -0.20018E-04   276   0.154E-02
  180 T=   763. E= -.13721880E+03 F= -.14973755E+03 E0= -.14927619E+03  EK= 0.12519E+02 SP= 0.00E+00 SK= 0.00E+00
       N       E                     dE             d eps       ncg     rms          rms(c)
DAV:   1    -0.149735916121E+03    0.16108E-02   -0.16920E-04   251   0.173E-02    0.317E-03
DAV:   2    -0.149735917051E+03   -0.92909E-06   -0.62538E-06   164   0.354E-03
  181 T=   762. E= -.13721883E+03 F= -.14973592E+03 E0= -.14927463E+03  EK= 0.12517E+02 SP= 0.00E+00 SK= 0.00E+00
       N       E                     dE             d eps       ncg     rms          rms(c)
DAV:   1    -0.149728627075E+03    0.72890E-02   -0.10931E-03   275   0.975E-02    0.394E-03
DAV:   2    -0.149728643674E+03   -0.16599E-04   -0.16113E-04   236   0.142E-02
  182 T=   762. E= -.13721886E+03 F= -.14972864E+03 E0= -.14926750E+03  EK= 0.12510E+02 SP= 0.00E+00 SK= 0.00E+00
       N       E                     dE             d eps       ncg     rms          rms(c)
DAV:   1    -0.149715134338E+03    0.13493E-01   -0.43038E-03   180   0.193E-01    0.257E-03
DAV:   2    -0.149715148803E+03   -0.14465E-04   -0.14545E-04   292   0.127E-02
  183 T=   761. E= -.13721884E+03 F= -.14971515E+03 E0= -.14925421E+03  EK= 0.12496E+02 SP= 0.00E+00 SK= 0.00E+00
       N       E                     dE             d eps       ncg     rms          rms(c)
DAV:   1    -0.149695206194E+03    0.19928E-01   -0.96428E-03   148   0.290E-01    0.389E-03
DAV:   2    -0.149695224667E+03   -0.18473E-04   -0.18196E-04   284   0.151E-02
  184 T=   760. E= -.13721882E+03 F= -.14969522E+03 E0= -.14923457E+03  EK= 0.12476E+02 SP= 0.00E+00 SK= 0.00E+00
       N       E                     dE             d eps       ncg     rms          rms(c)
DAV:   1    -0.149668571863E+03    0.26634E-01   -0.17129E-02   156   0.386E-01    0.387E-03
DAV:   2    -0.149668594369E+03   -0.22505E-04   -0.21918E-04   300   0.180E-02
  185 T=   758. E= -.13721883E+03 F= -.14966859E+03 E0= -.14920827E+03  EK= 0.12450E+02 SP= 0.00E+00 SK= 0.00E+00
       N       E                     dE             d eps       ncg     rms          rms(c)
DAV:   1    -0.149635218653E+03    0.33353E-01   -0.26784E-02   180   0.482E-01    0.318E-03
DAV:   2    -0.149635240852E+03   -0.22199E-04   -0.22058E-04   300   0.168E-02
  186 T=   756. E= -.13721884E+03 F= -.14963524E+03 E0= -.14917531E+03  EK= 0.12416E+02 SP= 0.00E+00 SK= 0.00E+00
       N       E                     dE             d eps       ncg     rms          rms(c)
DAV:   1    -0.149595256454E+03    0.39962E-01   -0.38504E-02   179   0.578E-01    0.377E-03
DAV:   2    -0.149595288014E+03   -0.31561E-04   -0.31024E-04   300   0.176E-02
  187 T=   754. E= -.13721881E+03 F= -.14959529E+03 E0= -.14913581E+03  EK= 0.12376E+02 SP= 0.00E+00 SK= 0.00E+00
       N       E                     dE             d eps       ncg     rms          rms(c)
DAV:   1    -0.149549120369E+03    0.46136E-01   -0.52205E-02   171   0.675E-01    0.454E-03
DAV:   2    -0.149549150397E+03   -0.30028E-04   -0.29233E-04   300   0.161E-02
  188 T=   751. E= -.13721874E+03 F= -.14954915E+03 E0= -.14909016E+03  EK= 0.12330E+02 SP= 0.00E+00 SK= 0.00E+00
       N       E                     dE             d eps       ncg     rms          rms(c)
DAV:   1    -0.149497011852E+03    0.52109E-01   -0.68880E-02   444   0.770E-01    0.411E-03
DAV:   2    -0.149497341398E+03   -0.32955E-03   -0.33077E-03   292   0.415E-02    0.246E-03
DAV:   3    -0.149497342526E+03   -0.11276E-05   -0.16372E-05   180   0.603E-03
  189 T=   748. E= -.13721864E+03 F= -.14949734E+03 E0= -.14903889E+03  EK= 0.12279E+02 SP= 0.00E+00 SK= 0.00E+00
       N       E                     dE             d eps       ncg     rms          rms(c)
DAV:   1    -0.149440330815E+03    0.57011E-01   -0.86285E-02   331   0.864E-01    0.633E-03
DAV:   2    -0.149440547736E+03   -0.21692E-03   -0.21987E-03   308   0.277E-02    0.335E-03
DAV:   3    -0.149440548738E+03   -0.10020E-05   -0.13233E-05   164   0.552E-03
  190 T=   745. E= -.13721861E+03 F= -.14944055E+03 E0= -.14898268E+03  EK= 0.12222E+02 SP= 0.00E+00 SK= 0.00E+00
       N       E                     dE             d eps       ncg     rms          rms(c)
DAV:   1    -0.149379554390E+03    0.60993E-01   -0.13867E-04   275   0.148E-02    0.386E-03
DAV:   2    -0.149379555090E+03   -0.70001E-06   -0.73397E-06   156   0.385E-03
  191 T=   741. E= -.13721860E+03 F= -.14937956E+03 E0= -.14892229E+03  EK= 0.12161E+02 SP= 0.00E+00 SK= 0.00E+00
       N       E                     dE             d eps       ncg     rms          rms(c)
DAV:   1    -0.149315199447E+03    0.64355E-01   -0.10084E-03   180   0.972E-02    0.350E-03
DAV:   2    -0.149315205075E+03   -0.56284E-05   -0.58798E-05   180   0.106E-02
  192 T=   737. E= -.13721854E+03 F= -.14931521E+03 E0= -.14885856E+03  EK= 0.12097E+02 SP= 0.00E+00 SK= 0.00E+00
       N       E                     dE             d eps       ncg     rms          rms(c)
DAV:   1    -0.149248512470E+03    0.66687E-01   -0.39903E-03   155   0.193E-01    0.372E-03
DAV:   2    -0.149248521025E+03   -0.85547E-05   -0.82846E-05   212   0.137E-02
  193 T=   733. E= -.13721847E+03 F= -.14924852E+03 E0= -.14879251E+03  EK= 0.12030E+02 SP= 0.00E+00 SK= 0.00E+00
       N       E                     dE             d eps       ncg     rms          rms(c)
DAV:   1    -0.149180614777E+03    0.67898E-01   -0.89218E-03   171   0.289E-01    0.422E-03
DAV:   2    -0.149180636694E+03   -0.21918E-04   -0.21939E-04   308   0.192E-02
  194 T=   729. E= -.13721842E+03 F= -.14918064E+03 E0= -.14872526E+03  EK= 0.11962E+02 SP= 0.00E+00 SK= 0.00E+00
       N       E                     dE             d eps       ncg     rms          rms(c)
DAV:   1    -0.149112621064E+03    0.67994E-01   -0.15695E-02   156   0.385E-01    0.408E-03
DAV:   2    -0.149112634263E+03   -0.13200E-04   -0.13264E-04   268   0.146E-02
  195 T=   725. E= -.13721840E+03 F= -.14911263E+03 E0= -.14865790E+03  EK= 0.11894E+02 SP= 0.00E+00 SK= 0.00E+00
       N       E                     dE             d eps       ncg     rms          rms(c)
DAV:   1    -0.149045408504E+03    0.67213E-01   -0.24223E-02   156   0.480E-01    0.406E-03
DAV:   2    -0.149045423382E+03   -0.14878E-04   -0.14816E-04   244   0.171E-02
  196 T=   720. E= -.13721831E+03 F= -.14904542E+03 E0= -.14859133E+03  EK= 0.11827E+02 SP= 0.00E+00 SK= 0.00E+00
       N       E                     dE             d eps       ncg     rms          rms(c)
DAV:   1    -0.148979960291E+03    0.65448E-01   -0.34441E-02   156   0.574E-01    0.510E-03
DAV:   2    -0.148979987665E+03   -0.27373E-04   -0.27009E-04   308   0.201E-02
  197 T=   716. E= -.13721826E+03 F= -.14897999E+03 E0= -.14852651E+03  EK= 0.11762E+02 SP= 0.00E+00 SK= 0.00E+00
       N       E                     dE             d eps       ncg     rms          rms(c)
DAV:   1    -0.148917364366E+03    0.62596E-01   -0.46213E-02   180   0.669E-01    0.459E-03
DAV:   2    -0.148917387969E+03   -0.23603E-04   -0.23961E-04   316   0.181E-02
[...]
       N       E                     dE             d eps       ncg     rms          rms(c)
DAV:   1    -0.148890778490E+03   -0.38741E-01   -0.81684E-02   155   0.839E-01    0.768E-03
DAV:   2    -0.148890796945E+03   -0.18455E-04   -0.17068E-04   260   0.175E-02
  950 T=   710. E= -.13722756E+03 F= -.14889080E+03 E0= -.14843484E+03  EK= 0.11663E+02 SP= 0.00E+00 SK= 0.00E+00
       N       E                     dE             d eps       ncg     rms          rms(c)
DAV:   1    -0.148926938193E+03   -0.36160E-01   -0.14124E-04   219   0.170E-02    0.709E-03
DAV:   2    -0.148926943683E+03   -0.54899E-05   -0.13652E-05   156   0.553E-03
  951 T=   713. E= -.13722761E+03 F= -.14892694E+03 E0= -.14847040E+03  EK= 0.11699E+02 SP= 0.00E+00 SK= 0.00E+00
       N       E                     dE             d eps       ncg     rms          rms(c)
DAV:   1    -0.148960101050E+03   -0.33163E-01   -0.12962E-03   202   0.974E-02    0.104E-02
DAV:   2    -0.148960123474E+03   -0.22424E-04   -0.10748E-04   196   0.162E-02
  952 T=   715. E= -.13722768E+03 F= -.14896012E+03 E0= -.14850300E+03  EK= 0.11732E+02 SP= 0.00E+00 SK= 0.00E+00
       N       E                     dE             d eps       ncg     rms          rms(c)
DAV:   1    -0.148989818971E+03   -0.29718E-01   -0.50779E-03   178   0.191E-01    0.121E-02
DAV:   2    -0.148989862958E+03   -0.43987E-04   -0.29680E-04   308   0.202E-02
  953 T=   717. E= -.13722771E+03 F= -.14898986E+03 E0= -.14853219E+03  EK= 0.11762E+02 SP= 0.00E+00 SK= 0.00E+00
       N       E                     dE             d eps       ncg     rms          rms(c)
DAV:   1    -0.149015735071E+03   -0.25916E-01   -0.11381E-02   155   0.286E-01    0.570E-03
DAV:   2    -0.149015745737E+03   -0.10666E-04   -0.15491E-04   244   0.201E-02
  954 T=   718. E= -.13722779E+03 F= -.14901575E+03 E0= -.14855756E+03  EK= 0.11788E+02 SP= 0.00E+00 SK= 0.00E+00
       N       E                     dE             d eps       ncg     rms          rms(c)
DAV:   1    -0.149037342948E+03   -0.21608E-01   -0.20306E-02   155   0.380E-01    0.938E-03
DAV:   2    -0.149037380729E+03   -0.37782E-04   -0.36827E-04   308   0.253E-02
  955 T=   719. E= -.13722778E+03 F= -.14903738E+03 E0= -.14857873E+03  EK= 0.11810E+02 SP= 0.00E+00 SK= 0.00E+00
       N       E                     dE             d eps       ncg     rms          rms(c)
DAV:   1    -0.149054645496E+03   -0.17303E-01   -0.31676E-02   156   0.475E-01    0.163E-02
DAV:   2    -0.149054711288E+03   -0.65792E-04   -0.48471E-04   300   0.314E-02
  956 T=   720. E= -.13722775E+03 F= -.14905471E+03 E0= -.14859563E+03  EK= 0.11827E+02 SP= 0.00E+00 SK= 0.00E+00
       N       E                     dE             d eps       ncg     rms          rms(c)
DAV:   1    -0.149067727054E+03   -0.13082E-01   -0.45542E-02   180   0.568E-01    0.914E-03
DAV:   2    -0.149067749960E+03   -0.22907E-04   -0.28331E-04   300   0.232E-02
  957 T=   721. E= -.13722781E+03 F= -.14906775E+03 E0= -.14860828E+03  EK= 0.11840E+02 SP= 0.00E+00 SK= 0.00E+00
       N       E                     dE             d eps       ncg     rms          rms(c)
DAV:   1    -0.149076425174E+03   -0.86981E-02   -0.61726E-02   204   0.661E-01    0.144E-02
DAV:   2    -0.149076500484E+03   -0.75310E-04   -0.62334E-04   308   0.328E-02
  958 T=   722. E= -.13722780E+03 F= -.14907650E+03 E0= -.14861672E+03  EK= 0.11849E+02 SP= 0.00E+00 SK= 0.00E+00
       N       E                     dE             d eps       ncg     rms          rms(c)
DAV:   1    -0.149081001783E+03   -0.45766E-02   -0.80287E-02   180   0.754E-01    0.191E-02
DAV:   2    -0.149081127697E+03   -0.12591E-03   -0.75069E-04   308   0.385E-02    0.134E-02
DAV:   3    -0.149081175003E+03   -0.47306E-04   -0.29712E-05   172   0.728E-03
  959 T=   722. E= -.13722776E+03 F= -.14908118E+03 E0= -.14862115E+03  EK= 0.11853E+02 SP= 0.00E+00 SK= 0.00E+00
       N       E                     dE             d eps       ncg     rms          rms(c)
DAV:   1    -0.149082042711E+03   -0.91501E-03   -0.10119E-01   163   0.845E-01    0.178E-02
DAV:   2    -0.149082096507E+03   -0.53795E-04   -0.27813E-04   316   0.193E-02
  960 T=   722. E= -.13722773E+03 F= -.14908210E+03 E0= -.14862189E+03  EK= 0.11854E+02 SP= 0.00E+00 SK= 0.00E+00
       N       E                     dE             d eps       ncg     rms          rms(c)
DAV:   1    -0.149079438553E+03    0.26042E-02   -0.65058E-04   299   0.311E-02    0.158E-02
DAV:   2    -0.149079455178E+03   -0.16625E-04   -0.70956E-06   164   0.521E-03
  961 T=   722. E= -.13722769E+03 F= -.14907946E+03 E0= -.14861915E+03  EK= 0.11852E+02 SP= 0.00E+00 SK= 0.00E+00
       N       E                     dE             d eps       ncg     rms          rms(c)
DAV:   1    -0.149073641090E+03    0.57975E-02   -0.13255E-03   276   0.954E-02    0.992E-03
DAV:   2    -0.149073671218E+03   -0.30128E-04   -0.22705E-04   252   0.170E-02
  962 T=   722. E= -.13722767E+03 F= -.14907367E+03 E0= -.14861331E+03  EK= 0.11846E+02 SP= 0.00E+00 SK= 0.00E+00
       N       E                     dE             d eps       ncg     rms          rms(c)
DAV:   1    -0.149065258144E+03    0.83829E-02   -0.51497E-03   180   0.188E-01    0.989E-03
DAV:   2    -0.149065284640E+03   -0.26496E-04   -0.19653E-04   276   0.160E-02
  963 T=   721. E= -.13722762E+03 F= -.14906528E+03 E0= -.14860496E+03  EK= 0.11838E+02 SP= 0.00E+00 SK= 0.00E+00
       N       E                     dE             d eps       ncg     rms          rms(c)
DAV:   1    -0.149054782648E+03    0.10475E-01   -0.11497E-02   156   0.279E-01    0.165E-02
DAV:   2    -0.149054845186E+03   -0.62538E-04   -0.25957E-04   300   0.214E-02
  964 T=   720. E= -.13722753E+03 F= -.14905485E+03 E0= -.14859463E+03  EK= 0.11827E+02 SP= 0.00E+00 SK= 0.00E+00
       N       E                     dE             d eps       ncg     rms          rms(c)
DAV:   1    -0.149043186756E+03    0.11596E-01   -0.20519E-02   179   0.371E-01    0.121E-02
DAV:   2    -0.149043225864E+03   -0.39108E-04   -0.25290E-04   300   0.200E-02
  965 T=   720. E= -.13722755E+03 F= -.14904323E+03 E0= -.14858318E+03  EK= 0.11816E+02 SP= 0.00E+00 SK= 0.00E+00
       N       E                     dE             d eps       ncg     rms          rms(c)
DAV:   1    -0.149030856679E+03    0.12330E-01   -0.32267E-02   156   0.463E-01    0.102E-02
DAV:   2    -0.149030890467E+03   -0.33788E-04   -0.24763E-04   316   0.184E-02
  966 T=   719. E= -.13722748E+03 F= -.14903089E+03 E0= -.14857110E+03  EK= 0.11803E+02 SP= 0.00E+00 SK= 0.00E+00
       N       E                     dE             d eps       ncg     rms          rms(c)
DAV:   1    -0.149018581921E+03    0.12275E-01   -0.46716E-02   164   0.553E-01    0.207E-02
DAV:   2    -0.149018643774E+03   -0.61853E-04   -0.43941E-04   316   0.219E-02
  967 T=   718. E= -.13722739E+03 F= -.14901864E+03 E0= -.14855915E+03  EK= 0.11791E+02 SP= 0.00E+00 SK= 0.00E+00
       N       E                     dE             d eps       ncg     rms          rms(c)
DAV:   1    -0.149007206992E+03    0.11375E-01   -0.63965E-02   180   0.643E-01    0.761E-03
DAV:   2    -0.149007239864E+03   -0.32872E-04   -0.36110E-04   324   0.198E-02
  968 T=   718. E= -.13722736E+03 F= -.14900724E+03 E0= -.14854809E+03  EK= 0.11780E+02 SP= 0.00E+00 SK= 0.00E+00
       N       E                     dE             d eps       ncg     rms          rms(c)
DAV:   1    -0.148996825545E+03    0.10381E-01   -0.85485E-02   458   0.732E-01    0.121E-02
DAV:   2    -0.148997232521E+03   -0.40698E-03   -0.40424E-03   316   0.535E-02    0.919E-03
DAV:   3    -0.148997237827E+03   -0.53056E-05   -0.38895E-05   172   0.101E-02
  969 T=   717. E= -.13722725E+03 F= -.14899724E+03 E0= -.14853850E+03  EK= 0.11770E+02 SP= 0.00E+00 SK= 0.00E+00
       N       E                     dE             d eps       ncg     rms          rms(c)
DAV:   1    -0.148989209203E+03    0.80233E-02   -0.10704E-01   178   0.821E-01    0.105E-02
DAV:   2    -0.148989378499E+03   -0.16930E-03   -0.16037E-03   316   0.318E-02    0.891E-03
DAV:   3    -0.148989385162E+03   -0.66629E-05   -0.11739E-05   164   0.535E-03
  970 T=   717. E= -.13722717E+03 F= -.14898939E+03 E0= -.14853110E+03  EK= 0.11762E+02 SP= 0.00E+00 SK= 0.00E+00
       N       E                     dE             d eps       ncg     rms          rms(c)
DAV:   1    -0.148984207722E+03    0.51708E-02   -0.24025E-04   306   0.183E-02    0.617E-03
DAV:   2    -0.148984207965E+03   -0.24288E-06   -0.50382E-06   156   0.336E-03
  971 T=   716. E= -.13722719E+03 F= -.14898421E+03 E0= -.14852641E+03  EK= 0.11757E+02 SP= 0.00E+00 SK= 0.00E+00
       N       E                     dE             d eps       ncg     rms          rms(c)
DAV:   1    -0.148982074445E+03    0.21333E-02   -0.11593E-03   236   0.938E-02    0.107E-02
DAV:   2    -0.148982108224E+03   -0.33780E-04   -0.27873E-04   284   0.197E-02
  972 T=   716. E= -.13722716E+03 F= -.14898211E+03 E0= -.14852482E+03  EK= 0.11755E+02 SP= 0.00E+00 SK= 0.00E+00
       N       E                     dE             d eps       ncg     rms          rms(c)
DAV:   1    -0.148983590841E+03   -0.15164E-02   -0.44310E-03   155   0.182E-01    0.114E-02
DAV:   2    -0.148983616116E+03   -0.25275E-04   -0.16322E-04   268   0.142E-02
  973 T=   716. E= -.13722718E+03 F= -.14898362E+03 E0= -.14852687E+03  EK= 0.11756E+02 SP= 0.00E+00 SK= 0.00E+00
       N       E                     dE             d eps       ncg     rms          rms(c)
DAV:   1    -0.148988895063E+03   -0.53042E-02   -0.98627E-03   179   0.271E-01    0.501E-03
DAV:   2    -0.148988918421E+03   -0.23358E-04   -0.24417E-04   300   0.190E-02
  974 T=   716. E= -.13722710E+03 F= -.14898892E+03 E0= -.14853272E+03  EK= 0.11762E+02 SP= 0.00E+00 SK= 0.00E+00
       N       E                     dE             d eps       ncg     rms          rms(c)
DAV:   1    -0.148998407080E+03   -0.95120E-02   -0.17505E-02   179   0.361E-01    0.117E-02
DAV:   2    -0.148998453644E+03   -0.46564E-04   -0.30758E-04   300   0.213E-02
  975 T=   717. E= -.13722711E+03 F= -.14899845E+03 E0= -.14854281E+03  EK= 0.11771E+02 SP= 0.00E+00 SK= 0.00E+00
       N       E                     dE             d eps       ncg     rms          rms(c)
DAV:   1    -0.149012208354E+03   -0.13801E-01   -0.27346E-02   180   0.450E-01    0.889E-03
DAV:   2    -0.149012236882E+03   -0.28528E-04   -0.22523E-04   292   0.181E-02
  976 T=   718. E= -.13722707E+03 F= -.14901224E+03 E0= -.14855716E+03  EK= 0.11785E+02 SP= 0.00E+00 SK= 0.00E+00
       N       E                     dE             d eps       ncg     rms          rms(c)
DAV:   1    -0.149030280864E+03   -0.18073E-01   -0.39231E-02   172   0.539E-01    0.536E-03
DAV:   2    -0.149030307282E+03   -0.26418E-04   -0.25933E-04   300   0.186E-02
  977 T=   719. E= -.13722698E+03 F= -.14903031E+03 E0= -.14857579E+03  EK= 0.11803E+02 SP= 0.00E+00 SK= 0.00E+00
       N       E                     dE             d eps       ncg     rms          rms(c)
DAV:   1    -0.149052540263E+03   -0.22259E-01   -0.53211E-02   172   0.627E-01    0.114E-02
DAV:   2    -0.149052583696E+03   -0.43433E-04   -0.34768E-04   300   0.229E-02
  978 T=   720. E= -.13722698E+03 F= -.14905258E+03 E0= -.14859863E+03  EK= 0.11826E+02 SP= 0.00E+00 SK= 0.00E+00
       N       E                     dE             d eps       ncg     rms          rms(c)
DAV:   1    -0.149078622314E+03   -0.26082E-01   -0.69334E-02   172   0.715E-01    0.987E-03
DAV:   2    -0.149078662312E+03   -0.39998E-04   -0.35303E-04   308   0.194E-02
  979 T=   722. E= -.13722696E+03 F= -.14907866E+03 E0= -.14862524E+03  EK= 0.11852E+02 SP= 0.00E+00 SK= 0.00E+00
       N       E                     dE             d eps       ncg     rms          rms(c)
DAV:   1    -0.149108215985E+03   -0.29594E-01   -0.87377E-02   172   0.802E-01    0.650E-03
DAV:   2    -0.149108255992E+03   -0.40007E-04   -0.38132E-04   308   0.195E-02
  980 T=   724. E= -.13722697E+03 F= -.14910826E+03 E0= -.14865536E+03  EK= 0.11881E+02 SP= 0.00E+00 SK= 0.00E+00
       N       E                     dE             d eps       ncg     rms          rms(c)
DAV:   1    -0.149141006892E+03   -0.32791E-01   -0.56626E-03   307   0.351E-02    0.947E-03
DAV:   2    -0.149141019997E+03   -0.13105E-04   -0.30427E-05   188   0.744E-03
  981 T=   726. E= -.13722697E+03 F= -.14914102E+03 E0= -.14868863E+03  EK= 0.11914E+02 SP= 0.00E+00 SK= 0.00E+00
       N       E                     dE             d eps       ncg     rms          rms(c)
DAV:   1    -0.149176471615E+03   -0.35465E-01   -0.14673E-03   284   0.118E-01    0.104E-02
DAV:   2    -0.149176604015E+03   -0.13240E-03   -0.12668E-03   276   0.613E-02    0.698E-03
DAV:   3    -0.149176607890E+03   -0.38746E-05   -0.15830E-05   156   0.646E-03
  982 T=   728. E= -.13722695E+03 F= -.14917661E+03 E0= -.14872470E+03  EK= 0.11950E+02 SP= 0.00E+00 SK= 0.00E+00
       N       E                     dE             d eps       ncg     rms          rms(c)
DAV:   1    -0.149214752349E+03   -0.38148E-01   -0.35186E-03   171   0.182E-01    0.664E-03
DAV:   2    -0.149214760792E+03   -0.84430E-05   -0.10500E-04   188   0.167E-02
  983 T=   730. E= -.13722701E+03 F= -.14921476E+03 E0= -.14876330E+03  EK= 0.11988E+02 SP= 0.00E+00 SK= 0.00E+00
       N       E                     dE             d eps       ncg     rms          rms(c)
DAV:   1    -0.149255079821E+03   -0.40327E-01   -0.79712E-03   155   0.273E-01    0.115E-02
DAV:   2    -0.149255109227E+03   -0.29407E-04   -0.23314E-04   292   0.219E-02
  984 T=   733. E= -.13722705E+03 F= -.14925511E+03 E0= -.14880409E+03  EK= 0.12028E+02 SP= 0.00E+00 SK= 0.00E+00
       N       E                     dE             d eps       ncg     rms          rms(c)
DAV:   1    -0.149297156951E+03   -0.42077E-01   -0.14166E-02   155   0.364E-01    0.105E-02
DAV:   2    -0.149297189786E+03   -0.32835E-04   -0.26868E-04   292   0.249E-02
  985 T=   735. E= -.13722709E+03 F= -.14929719E+03 E0= -.14884657E+03  EK= 0.12070E+02 SP= 0.00E+00 SK= 0.00E+00
       N       E                     dE             d eps       ncg     rms          rms(c)
DAV:   1    -0.149340388171E+03   -0.43231E-01   -0.21962E-02   156   0.454E-01    0.711E-03
DAV:   2    -0.149340402530E+03   -0.14358E-04   -0.12277E-04   252   0.156E-02
  986 T=   738. E= -.13722707E+03 F= -.14934040E+03 E0= -.14889015E+03  EK= 0.12113E+02 SP= 0.00E+00 SK= 0.00E+00
       N       E                     dE             d eps       ncg     rms          rms(c)
DAV:   1    -0.149384267492E+03   -0.43879E-01   -0.31485E-02   164   0.545E-01    0.112E-02
DAV:   2    -0.149384296403E+03   -0.28910E-04   -0.17159E-04   260   0.191E-02
  987 T=   741. E= -.13722714E+03 F= -.14938430E+03 E0= -.14893438E+03  EK= 0.12157E+02 SP= 0.00E+00 SK= 0.00E+00
       N       E                     dE             d eps       ncg     rms          rms(c)
DAV:   1    -0.149428100134E+03   -0.43833E-01   -0.42699E-02   180   0.636E-01    0.109E-02
DAV:   2    -0.149428137939E+03   -0.37806E-04   -0.25553E-04   284   0.212E-02
  988 T=   743. E= -.13722720E+03 F= -.14942814E+03 E0= -.14897853E+03  EK= 0.12201E+02 SP= 0.00E+00 SK= 0.00E+00
       N       E                     dE             d eps       ncg     rms          rms(c)
DAV:   1    -0.149471294201E+03   -0.43194E-01   -0.55527E-02   156   0.728E-01    0.806E-03
DAV:   2    -0.149471320888E+03   -0.26687E-04   -0.22982E-04   284   0.204E-02
  989 T=   746. E= -.13722728E+03 F= -.14947132E+03 E0= -.14902201E+03  EK= 0.12244E+02 SP= 0.00E+00 SK= 0.00E+00
       N       E                     dE             d eps       ncg     rms          rms(c)
DAV:   1    -0.149513204479E+03   -0.41910E-01   -0.69980E-02   156   0.820E-01    0.145E-02
DAV:   2    -0.149513242850E+03   -0.38371E-04   -0.33194E-04   308   0.224E-02
  990 T=   748. E= -.13722734E+03 F= -.14951324E+03 E0= -.14906419E+03  EK= 0.12286E+02 SP= 0.00E+00 SK= 0.00E+00
       N       E                     dE             d eps       ncg     rms          rms(c)
DAV:   1    -0.149553517547E+03   -0.40313E-01   -0.21353E-04   292   0.185E-02    0.921E-03
DAV:   2    -0.149553521003E+03   -0.34552E-05   -0.13963E-05   172   0.719E-03
  991 T=   751. E= -.13722742E+03 F= -.14955352E+03 E0= -.14910469E+03  EK= 0.12326E+02 SP= 0.00E+00 SK= 0.00E+00
       N       E                     dE             d eps       ncg     rms          rms(c)
DAV:   1    -0.149591565690E+03   -0.38048E-01   -0.98203E-04   259   0.957E-02    0.954E-03
DAV:   2    -0.149591581922E+03   -0.16231E-04   -0.14613E-04   228   0.162E-02
  992 T=   753. E= -.13722746E+03 F= -.14959158E+03 E0= -.14914294E+03  EK= 0.12364E+02 SP= 0.00E+00 SK= 0.00E+00
       N       E                     dE             d eps       ncg     rms          rms(c)
DAV:   1    -0.149626831536E+03   -0.35266E-01   -0.40391E-03   218   0.192E-01    0.146E-02
DAV:   2    -0.149626886102E+03   -0.54565E-04   -0.38026E-04   292   0.262E-02
  993 T=   755. E= -.13722749E+03 F= -.14962689E+03 E0= -.14917842E+03  EK= 0.12399E+02 SP= 0.00E+00 SK= 0.00E+00
       N       E                     dE             d eps       ncg     rms          rms(c)
DAV:   1    -0.149659001049E+03   -0.32170E-01   -0.93053E-03   172   0.287E-01    0.977E-03
DAV:   2    -0.149659036772E+03   -0.35722E-04   -0.33191E-04   316   0.246E-02
  994 T=   757. E= -.13722756E+03 F= -.14965904E+03 E0= -.14921072E+03  EK= 0.12431E+02 SP= 0.00E+00 SK= 0.00E+00
       N       E                     dE             d eps       ncg     rms          rms(c)
DAV:   1    -0.149687457824E+03   -0.28457E-01   -0.16653E-02   346   0.382E-01    0.154E-02
DAV:   2    -0.149687575079E+03   -0.11726E-03   -0.11117E-03   292   0.324E-02    0.118E-02
DAV:   3    -0.149687583990E+03   -0.89110E-05   -0.14015E-05   156   0.618E-03
  995 T=   759. E= -.13722760E+03 F= -.14968758E+03 E0= -.14923939E+03  EK= 0.12460E+02 SP= 0.00E+00 SK= 0.00E+00
       N       E                     dE             d eps       ncg     rms          rms(c)
DAV:   1    -0.149712035314E+03   -0.24460E-01   -0.26144E-02   146   0.478E-01    0.126E-02
DAV:   2    -0.149712088148E+03   -0.52834E-04   -0.42352E-04   324   0.238E-02
  996 T=   761. E= -.13722761E+03 F= -.14971209E+03 E0= -.14926399E+03  EK= 0.12484E+02 SP= 0.00E+00 SK= 0.00E+00
       N       E                     dE             d eps       ncg     rms          rms(c)
DAV:   1    -0.149732089104E+03   -0.20054E-01   -0.38238E-02   156   0.574E-01    0.151E-02
DAV:   2    -0.149732129842E+03   -0.40738E-04   -0.39862E-04   308   0.263E-02
  997 T=   762. E= -.13722758E+03 F= -.14973213E+03 E0= -.14928409E+03  EK= 0.12505E+02 SP= 0.00E+00 SK= 0.00E+00
       N       E                     dE             d eps       ncg     rms          rms(c)
DAV:   1    -0.149747504057E+03   -0.15415E-01   -0.52588E-02   156   0.670E-01    0.111E-02
DAV:   2    -0.149747540879E+03   -0.36822E-04   -0.25608E-04   324   0.198E-02
  998 T=   763. E= -.13722761E+03 F= -.14974754E+03 E0= -.14929953E+03  EK= 0.12520E+02 SP= 0.00E+00 SK= 0.00E+00
       N       E                     dE             d eps       ncg     rms          rms(c)
DAV:   1    -0.149758006069E+03   -0.10502E-01   -0.69611E-02   164   0.767E-01    0.114E-02
DAV:   2    -0.149758042391E+03   -0.36322E-04   -0.33599E-04   308   0.224E-02
  999 T=   763. E= -.13722768E+03 F= -.14975804E+03 E0= -.14931005E+03  EK= 0.12530E+02 SP= 0.00E+00 SK= 0.00E+00
       N       E                     dE             d eps       ncg     rms          rms(c)
DAV:   1    -0.149763043821E+03   -0.50378E-02   -0.90169E-02   426   0.864E-01    0.175E-02
DAV:   2    -0.149763384250E+03   -0.34043E-03   -0.32348E-03   300   0.411E-02    0.130E-02
DAV:   3    -0.149763400300E+03   -0.16049E-04   -0.25226E-05   172   0.769E-03
 1000 T=   764. E= -.13722772E+03 F= -.14976340E+03 E0= -.14931540E+03  EK= 0.12536E+02 SP= 0.00E+00 SK= 0.00E+00
