PROCAR lm decomposed
# of k-points:    1         # of bands: 129         # of ions: 128

 k-point    1 :    0.25000000 0.25000000 0.25000000     weight = 1.00000000

band   1 # energy   -2.76015131 # occ.  2.00000000

ion      s     py     pz     px    dxy    dyz    dz2    dxz    dx2    tot
  1  0.001  0.000  0.000  0.000  0.000  0.000  0.000  0.000  0.000  0.001
  2  0.001  0.000  0.000  0.000  0.000  0.000  0.000  0.000  0.000  0.001
  3  0.001  0.000  0.000  0.000  0.000  0.000  0.000  0.000  0.000  0.001
  4  0.001  0.000  0.000  0.000  0.000  0.000  0.000  0.000  0.000  0.001
  5  0.000  0.000  0.000  0.000  0.000  0.000  0.000  0.000  0.000  0.000
  6  0.000  0.000  0.000  0.000  0.000  0.000  0.000  0.000  0.000  0.000
  7  0.001  0.000  0.000  0.000  0.000  0.000  0.000  0.000  0.000  0.001
  8  0.001  0.000  0.000  0.000  0.000  0.000  0.000  0.000  0.000  0.001
  9  0.000  0.000  0.000  0.000  0.000  0.000  0.000  0.000  0.000  0.000
 10  0.002  0.000  0.000  0.000  0.000  0.000  0.000  0.000  0.000  0.002
 11  0.001  0.000  0.000  0.000  0.000  0.000  0.000  0.000  0.000  0.001
 12  0.001  0.000  0.000  0.000  0.000  0.000  0.000  0.000  0.000  0.001
 13  0.002  0.000  0.000  0.000  0.000  0.000  0.000  0.000  0.000  0.002
 14  0.001  0.000  0.000  0.000  0.000  0.000  0.000  0.000  0.000  0.001
 15  0.001  0.000  0.000  0.000  0.000  0.000  0.000  0.000  0.000  0.001
 16  0.002  0.000  0.000  0.000  0.000  0.000  0.000  0.000  0.000  0.002
 17  0.002  0.000  0.000  0.000  0.000  0.000  0.000  0.000  0.000  0.002
 18  0.000  0.000  0.000  0.000  0.000  0.000  0.000  0.000  0.000  0.000
 19  0.002  0.000  0.000  0.000  0.000  0.000  0.000  0.000  0.000  0.002
 20  0.002  0.000  0.000  0.000  0.000  0.000  0.000  0.000  0.000  0.002
 21  0.001  0.000  0.000  0.000  0.000  0.000  0.000  0.000  0.000  0.001
 22  0.002  0.000  0.000  0.000  0.000  0.000  0.000  0.000  0.000  0.002
 23  0.001  0.000  0.000  0.000  0.000  0.000  0.000  0.000  0.000  0.001
 24  0.000  0.000  0.000  0.000  0.000  0.000  0.000  0.000  0.000  0.000
 25  0.001  0.000  0.000  0.000  0.000  0.000  0.000  0.000  0.000  0.001
 26  0.001  0.000  0.000  0.000  0.000  0.000  0.000  0.000  0.000  0.001
 27  0.001  0.000  0.000  0.000  0.000  0.000  0.000  0.000  0.000  0.001
 28  0.001  0.000  0.000  0.000  0.000  0.000  0.000  0.000  0.000  0.001
 29  0.002  0.000  0.000  0.000  0.000  0.000  0.000  0.000  0.000  0.002
 30  0.001  0.000  0.000  0.000  0.000  0.000  0.000  0.000  0.000  0.001
 31  0.001  0.000  0.000  0.000  0.000  0.000  0.000  0.000  0.000  0.001
 32  0.001  0.000  0.000  0.000  0.000  0.000  0.000  0.000  0.000  0.001
 33  0.002  0.000  0.000  0.000  0.000  0.000  0.000  0.000  0.000  0.002
 34  0.000  0.000  0.000  0.000  0.000  0.000  0.000  0.000  0.000  0.000
 35  0.000  0.000  0.000  0.000  0.000  0.000  0.000  0.000  0.000  0.000
 36  0.000  0.000  0.000  0.000  0.000  0.000  0.000  0.000  0.000  0.000
 37  0.001  0.000  0.000  0.000  0.000  0.000  0.000  0.000  0.000  0.001
 38  0.001  0.000  0.000  0.000  0.000  0.000  0.000  0.000  0.000  0.001
 39  0.001  0.000  0.000  0.000  0.000  0.000  0.000  0.000  0.000  0.001
 40  0.002  0.000  0.000  0.000  0.000  0.000  0.000  0.000  0.000  0.002
 41  0.002  0.000  0.000  0.000  0.000  0.000  0.000  0.000  0.000  0.002
 42  0.002  0.000  0.000  0.000  0.000  0.000  0.000  0.000  0.000  0.002
 43  0.000  0.000  0.000  0.000  0.000  0.000  0.000  0.000  0.000  0.000
 44  0.001  0.000  0.000  0.000  0.000  0.000  0.000  0.000  0.000  0.001
 45  0.001  0.000  0.000  0.000  0.000  0.000  0.000  0.000  0.000  0.001
 46  0.000  0.000  0.000  0.000  0.000  0.000  0.000  0.000  0.000  0.000
 47  0.000  0.000  0.000  0.000  0.000  0.000  0.000  0.000  0.000  0.000
 48  0.001  0.000  0.000  0.000  0.000  0.000  0.000  0.000  0.000  0.001
 49  0.001  0.000  0.000  0.000  0.000  0.000  0.000  0.000  0.000  0.001
 50  0.001  0.000  0.000  0.000  0.000  0.000  0.000  0.000  0.000  0.001
 51  0.001  0.000  0.000  0.000  0.000  0.000  0.000  0.000  0.000  0.001
 52  0.001  0.000  0.000  0.000  0.000  0.000  0.000  0.000  0.000  0.001
 53  0.002  0.000  0.000  0.000  0.000  0.000  0.000  0.000  0.000  0.002
 54  0.001  0.000  0.000  0.000  0.000  0.000  0.000  0.000  0.000  0.001
 55  0.000  0.000  0.000  0.000  0.000  0.000  0.000  0.000  0.000  0.000
 56  0.003  0.000  0.000  0.000  0.000  0.000  0.000  0.000  0.000  0.003
 57  0.003  0.000  0.000  0.000  0.000  0.000  0.000  0.000  0.000  0.003
 58  0.001  0.000  0.000  0.000  0.000  0.000  0.000  0.000  0.000  0.001
 59  0.000  0.000  0.000  0.000  0.000  0.000  0.000  0.000  0.000  0.000
 60  0.000  0.000  0.000  0.000  0.000  0.000  0.000  0.000  0.000  0.001
 61  0.000  0.000  0.000  0.000  0.000  0.000  0.000  0.000  0.000  0.000
 62  0.001  0.000  0.000  0.000  0.000  0.000  0.000  0.000  0.000  0.001
 63  0.001  0.000  0.000  0.000  0.000  0.000  0.000  0.000  0.000  0.001
 64  0.000  0.000  0.000  0.000  0.000  0.000  0.000  0.000  0.000  0.000
 65  0.000  0.000  0.000  0.000  0.000  0.000  0.000  0.000  0.000  0.000
 66  0.001  0.000  0.000  0.000  0.000  0.000  0.000  0.000  0.000  0.001
 67  0.000  0.000  0.000  0.000  0.000  0.000  0.000  0.000  0.000  0.000
 68  0.000  0.000  0.000  0.000  0.000  0.000  0.000  0.000  0.000  0.000
 69  0.001  0.000  0.000  0.000  0.000  0.000  0.000  0.000  0.000  0.001
 70  0.001  0.000  0.000  0.000  0.000  0.000  0.000  0.000  0.000  0.001
 71  0.001  0.000  0.000  0.000  0.000  0.000  0.000  0.000  0.000  0.001
 72  0.001  0.000  0.000  0.000  0.000  0.000  0.000  0.000  0.000  0.001
 73  0.000  0.000  0.000  0.000  0.000  0.000  0.000  0.000  0.000  0.000
 74  0.001  0.000  0.000  0.000  0.000  0.000  0.000  0.000  0.000  0.001
 75  0.001  0.000  0.000  0.000  0.000  0.000  0.000  0.000  0.000  0.001
 76  0.001  0.000  0.000  0.000  0.000  0.000  0.000  0.000  0.000  0.001
 77  0.001  0.000  0.000  0.000  0.000  0.000  0.000  0.000  0.000  0.001
 78  0.001  0.000  0.000  0.000  0.000  0.000  0.000  0.000  0.000  0.001
 79  0.001  0.000  0.000  0.000  0.000  0.000  0.000  0.000  0.000  0.001
 80  0.001  0.000  0.000  0.000  0.000  0.000  0.000  0.000  0.000  0.001
 81  0.003  0.000  0.000  0.000  0.000  0.000  0.000  0.000  0.000  0.003
 82  0.001  0.000  0.000  0.000  0.000  0.000  0.000  0.000  0.000  0.001
 83  0.001  0.000  0.000  0.000  0.000  0.000  0.000  0.000  0.000  0.001
 84  0.001  0.000  0.000  0.000  0.000  0.000  0.000  0.000  0.000  0.001
 85  0.001  0.000  0.000  0.000  0.000  0.000  0.000  0.000  0.000  0.001
 86  0.000  0.000  0.000  0.000  0.000  0.000  0.000  0.000  0.000  0.000
 87  0.001  0.000  0.000  0.000  0.000  0.000  0.000  0.000  0.000  0.001
 88  0.000  0.000  0.000  0.000  0.000  0.000  0.000  0.000  0.000  0.000
 89  0.001  0.000  0.000  0.000  0.000  0.000  0.000  0.000  0.000  0.001
 90  0.001  0.000  0.000  0.000  0.000  0.000  0.000  0.000  0.000  0.001
 91  0.002  0.000  0.000  0.000  0.000  0.000  0.000  0.000  0.000  0.002
 92  0.002  0.000  0.000  0.000  0.000  0.000  0.000  0.000  0.000  0.002
 93  0.001  0.000  0.000  0.000  0.000  0.000  0.000  0.000  0.000  0.001
 94  0.001  0.000  0.000  0.000  0.000  0.000  0.000  0.000  0.000  0.001
 95  0.000  0.000  0.000  0.000  0.000  0.000  0.000  0.000  0.000  0.000
 96  0.001  0.000  0.000  0.000  0.000  0.000  0.000  0.000  0.000  0.001
 97  0.001  0.000  0.000  0.000  0.000  0.000  0.000  0.000  0.000  0.001
 98  0.001  0.000  0.000  0.000  0.000  0.000  0.000  0.000  0.000  0.001
 99  0.001  0.000  0.000  0.000  0.000  0.000  0.000  0.000  0.000  0.001
100  0.000  0.000  0.000  0.000  0.000  0.000  0.000  0.000  0.000  0.000
101  0.001  0.000  0.000  0.000  0.000  0.000  0.000  0.000  0.000  0.001
102  0.000  0.000  0.000  0.000  0.000  0.000  0.000  0.000  0.000  0.000
103  0.001  0.000  0.000  0.000  0.000  0.000  0.000  0.000  0.000  0.001
104  0.001  0.000  0.000  0.000  0.000  0.000  0.000  0.000  0.000  0.001
105  0.001  0.000  0.000  0.000  0.000  0.000  0.000  0.000  0.000  0.001
106  0.000  0.000  0.000  0.000  0.000  0.000  0.000  0.000  0.000  0.000
107  0.001  0.000  0.000  0.000  0.000  0.000  0.000  0.000  0.000  0.001
108  0.001  0.000  0.000  0.000  0.000  0.000  0.000  0.000  0.000  0.001
109  0.001  0.000  0.000  0.000  0.000  0.000  0.000  0.000  0.000  0.001
110  0.001  0.000  0.000  0.000  0.000  0.000  0.000  0.000  0.000  0.001
111  0.001  0.000  0.000  0.000  0.000  0.000  0.000  0.000  0.000  0.001
112  0.000  0.000  0.000  0.000  0.000  0.000  0.000  0.000  0.000  0.000
113  0.001  0.000  0.000  0.000  0.000  0.000  0.000  0.000  0.000  0.001
114  0.000  0.000  0.000  0.000  0.000  0.000  0.000  0.000  0.000  0.000
115  0.002  0.000  0.000  0.000  0.000  0.000  0.000  0.000  0.000  0.002
116  0.000  0.000  0.000  0.000  0.000  0.000  0.000  0.000  0.000  0.000
117  0.002  0.000  0.000  0.000  0.000  0.000  0.000  0.000  0.000  0.002
118  0.001  0.000  0.000  0.000  0.000  0.000  0.000  0.000  0.000  0.001
119  0.001  0.000  0.000  0.000  0.000  0.000  0.000  0.000  0.000  0.001
120  0.001  0.000  0.000  0.000  0.000  0.000  0.000  0.000  0.000  0.001
121  0.001  0.000  0.000  0.000  0.000  0.000  0.000  0.000  0.000  0.001
122  0.001  0.000  0.000  0.000  0.000  0.000  0.000  0.000  0.000  0.001
123  0.001  0.000  0.000  0.000  0.000  0.000  0.000  0.000  0.000  0.001
124  0.001  0.000  0.000  0.000  0.000  0.000  0.000  0.000  0.000  0.001
125  0.001  0.000  0.000  0.000  0.000  0.000  0.000  0.000  0.000  0.001
126  0.001  0.000  0.000  0.000  0.000  0.000  0.000  0.000  0.000  0.001
127  0.001  0.000  0.000  0.000  0.000  0.000  0.000  0.000  0.000  0.001
128  0.001  0.000  0.000  0.000  0.000  0.000  0.000  0.000  0.000  0.001
tot  0.116  0.001  0.001  0.001  0.000  0.000  0.000  0.000  0.000  0.118

band   2 # energy   -2.56515754 # occ.  2.00000000

ion      s     py     pz     px    dxy    dyz    dz2    dxz    dx2    tot
  1  0.001  0.000  0.000  0.000  0.000  0.000  0.000  0.000  0.000  0.001
  2  0.000  0.000  0.000  0.000  0.000  0.000  0.000  0.000  0.000  0.000
  3  0.000  0.000  0.000  0.000  0.000  0.000  0.000  0.000  0.000  0.000
  4  0.001  0.000  0.000  0.000  0.000  0.000  0.000  0.000  0.000  0.001
  5  0.002  0.000  0.000  0.000  0.000  0.000  0.000  0.000  0.000  0.002
  6  0.001  0.000  0.000  0.000  0.000  0.000  0.000  0.000  0.000  0.001
  7  0.000  0.000  0.000  0.000  0.000  0.000  0.000  0.000  0.000  0.000
  8  0.001  0.000  0.000  0.000  0.000  0.000  0.000  0.000  0.000  0.001
  9  0.001  0.000  0.000  0.000  0.000  0.000  0.000  0.000  0.000  0.001
 10  0.001  0.000  0.000  0.000  0.000  0.000  0.000  0.000  0.000  0.001
 11  0.001  0.000  0.000  0.000  0.000  0.000  0.000  0.000  0.000  0.001
 12  0.002  0.000  0.000  0.000  0.000  0.000  0.000  0.000  0.000  0.002
 13  0.001  0.000  0.000  0.000  0.000  0.000  0.000  0.000  0.000  0.001
 14  0.001  0.000  0.000  0.000  0.000  0.000  0.000  0.000  0.000  0.001
 15  0.001  0.000  0.000  0.000  0.000  0.000  0.000  0.000  0.000  0.001
 16  0.001  0.000  0.000  0.000  0.000  0.000  0.000  0.000  0.000  0.001
 17  0.000  0.000  0.000  0.000  0.000  0.000  0.000  0.000  0.000  0.000
 18  0.000  0.000  0.000  0.000  0.000  0.000  0.000  0.000  0.000  0.000
 19  0.001  0.000  0.000  0.000  0.000  0.000  0.000  0.000  0.000  0.001
 20  0.001  0.000  0.000  0.000  0.000  0.000  0.000  0.000  0.000  0.001
 21  0.001  0.000  0.000  0.000  0.000  0.000  0.000  0.000  0.000  0.001
 22  0.002  0.000  0.000  0.000  0.000  0.000  0.000  0.000  0.000  0.002
 23  0.003  0.000  0.000  0.000  0.000  0.000  0.000  0.000  0.000  0.003
 24  0.000  0.000  0.000  0.000  0.000  0.000  0.000  0.000  0.000  0.000
 25  0.001  0.000  0.000  0.000  0.000  0.000  0.000  0.000  0.000  0.001
 26  0.000  0.000  0.000  0.000  0.000  0.000  0.000  0.000  0.000  0.000
 27  0.001  0.000  0.000  0.000  0.000  0.000  0.000  0.000  0.000  0.001
 28  0.000  0.000  0.000  0.000  0.000  0.000  0.000  0.000  0.000  0.000
 29  0.002  0.000  0.000  0.000  0.000  0.000  0.000  0.000  0.000  0.002
 30  0.001  0.000  0.000  0.000  0.000  0.000  0.000  0.000  0.000  0.001
 31  0.000  0.000  0.000  0.000  0.000  0.000  0.000  0.000  0.000  0.000
 32  0.002  0.000  0.000  0.000  0.000  0.000  0.000  0.000  0.000  0.002
 33  0.001  0.000  0.000  0.000  0.000  0.000  0.000  0.000  0.000  0.001
 34  0.001  0.000  0.000  0.000  0.000  0.000  0.000  0.000  0.000  0.001
 35  0.000  0.000  0.000  0.000  0.000  0.000  0.000  0.000  0.000  0.001
 36  0.000  0.000  0.000  0.000  0.000  0.000  0.000  0.000  0.000  0.000
 37  0.001  0.000  0.000  0.000  0.000  0.000  0.000  0.000  0.000  0.001
 38  0.000  0.000  0.000  0.000  0.000  0.000  0.000  0.000  0.000  0.000
 39  0.000  0.000  0.000  0.000  0.000  0.000  0.000  0.000  0.000  0.000
 40  0.002  0.000  0.000  0.000  0.000  0.000  0.000  0.000  0.000  0.002
 41  0.002  0.000  0.000  0.000  0.000  0.000  0.000  0.000  0.000  0.002
 42  0.001  0.000  0.000  0.000  0.000  0.000  0.000  0.000  0.000  0.001
 43  0.001  0.000  0.000  0.000  0.000  0.000  0.000  0.000  0.000  0.001
 44  0.000  0.000  0.000  0.000  0.000  0.000  0.000  0.000  0.000  0.000
 45  0.001  0.000  0.000  0.000  0.000  0.000  0.000  0.000  0.000  0.001
 46  0.000  0.000  0.000  0.000  0.000  0.000  0.000  0.000  0.000  0.000
 47  0.000  0.000  0.000  0.000  0.000  0.000  0.000  0.000  0.000  0.000
 48  0.000  0.000  0.000  0.000  0.000  0.000  0.000  0.000  0.000  0.000
 49  0.001  0.000  0.000  0.000  0.000  0.000  0.000  0.000  0.000  0.001
 50  0.001  0.000  0.000  0.000  0.000  0.000  0.000  0.000  0.000  0.001
 51  0.000  0.000  0.000  0.000  0.000  0.000  0.000  0.000  0.000  0.000
 52  0.001  0.000  0.000  0.000  0.000  0.000  0.000  0.000  0.000  0.001
 53  0.000  0.000  0.000  0.000  0.000  0.000  0.000  0.000  0.000  0.001
 54  0.000  0.000  0.000  0.000  0.000  0.000  0.000  0.000  0.000  0.000
 55  0.001  0.000  0.000  0.000  0.000  0.000  0.000  0.000  0.000  0.001
 56  0.002  0.000  0.000  0.000  0.000  0.000  0.000  0.000  0.000  0.002
 57  0.002  0.000  0.000  0.000  0.000  0.000  0.000  0.000  0.000  0.002
 58  0.001  0.000  0.000  0.000  0.000  0.000  0.000  0.000  0.000  0.002
 59  0.000  0.000  0.000  0.000  0.000  0.000  0.000  0.000  0.000  0.000
 60  0.000  0.000  0.000  0.000  0.000  0.000  0.000  0.000  0.000  0.000
 61  0.000  0.000  0.000  0.000  0.000  0.000  0.000  0.000  0.000  0.000
 62  0.001  0.000  0.000  0.000  0.000  0.000  0.000  0.000  0.000  0.001
 63  0.000  0.000  0.000  0.000  0.000  0.000  0.000  0.000  0.000  0.000
 64  0.000  0.000  0.000  0.000  0.000  0.000  0.000  0.000  0.000  0.000
 65  0.002  0.000  0.000  0.000  0.000  0.000  0.000  0.000  0.000  0.002
 66  0.002  0.000  0.000  0.000  0.000  0.000  0.000  0.000  0.000  0.002
 67  0.000  0.000  0.000  0.000  0.000  0.000  0.000  0.000  0.000  0.000
 68  0.001  0.000  0.000  0.000  0.000  0.000  0.000  0.000  0.000  0.001
 69  0.001  0.000  0.000  0.000  0.000  0.000  0.000  0.000  0.000  0.001
 70  0.001  0.000  0.000  0.000  0.000  0.000  0.000  0.000  0.000  0.001
 71  0.001  0.000  0.000  0.000  0.000  0.000  0.000  0.000  0.000  0.001
 72  0.001  0.000  0.000  0.000  0.000  0.000  0.000  0.000  0.000  0.001
 73  0.000  0.000  0.000  0.000  0.000  0.000  0.000  0.000  0.000  0.000
 74  0.002  0.000  0.000  0.000  0.000  0.000  0.000  0.000  0.000  0.002
 75  0.001  0.000  0.000  0.000  0.000  0.000  0.000  0.000  0.000  0.001
 76  0.000  0.000  0.000  0.000  0.000  0.000  0.000  0.000  0.000  0.001
 77  0.001  0.000  0.000  0.000  0.000  0.000  0.000  0.000  0.000  0.001
 78  0.002  0.000  0.000  0.000  0.000  0.000  0.000  0.000  0.000  0.002
 79  0.000  0.000  0.000  0.000  0.000  0.000  0.000  0.000  0.000  0.000
 80  0.001  0.000  0.000  0.000  0.000  0.000  0.000  0.000  0.000  0.001
 81  0.002  0.000  0.000  0.000  0.000  0.000  0.000  0.000  0.000  0.002
 82  0.000  0.000  0.000  0.000  0.000  0.000  0.000  0.000  0.000  0.001
 83  0.000  0.000  0.000  0.000  0.000  0.000  0.000  0.000  0.000  0.000
 84  0.002  0.000  0.000  0.000  0.000  0.000  0.000  0.000  0.000  0.002
 85  0.001  0.000  0.000  0.000  0.000  0.000  0.000  0.000  0.000  0.001
 86  0.000  0.000  0.000  0.000  0.000  0.000  0.000  0.000  0.000  0.000
 87  0.001  0.000  0.000  0.000  0.000  0.000  0.000  0.000  0.000  0.001
 88  0.001  0.000  0.000  0.000  0.000  0.000  0.000  0.000  0.000  0.001
 89  0.001  0.000  0.000  0.000  0.000  0.000  0.000  0.000  0.000  0.001
 90  0.002  0.000  0.000  0.000  0.000  0.000  0.000  0.000  0.000  0.002
 91  0.001  0.000  0.000  0.000  0.000  0.000  0.000  0.000  0.000  0.001
 92  0.001  0.000  0.000  0.000  0.000  0.000  0.000  0.000  0.000  0.001
 93  0.001  0.000  0.000  0.000  0.000  0.000  0.000  0.000  0.000  0.001
 94  0.001  0.000  0.000  0.000  0.000  0.000  0.000  0.000  0.000  0.001
 95  0.000  0.000  0.000  0.000  0.000  0.000  0.000  0.000  0.000  0.000
 96  0.000  0.000  0.000  0.000  0.000  0.000  0.000  0.000  0.000  0.000
 97  0.001  0.000  0.000  0.000  0.000  0.000  0.000  0.000  0.000  0.001
 98  0.000  0.000  0.000  0.000  0.000  0.000  0.000  0.000  0.000  0.000
 99  0.001  0.000  0.000  0.000  0.000  0.000  0.000  0.000  0.000  0.001
100  0.000  0.000  0.000  0.000  0.000  0.000  0.000  0.000  0.000  0.000
101  0.002  0.000  0.000  0.000  0.000  0.000  0.000  0.000  0.000  0.002
102  0.000  0.000  0.000  0.000  0.000  0.000  0.000  0.000  0.000  0.000
103  0.001  0.000  0.000  0.000  0.000  0.000  0.000  0.000  0.000  0.001
104  0.001  0.000  0.000  0.000  0.000  0.000  0.000  0.000  0.000  0.001
105  0.001  0.000  0.000  0.000  0.000  0.000  0.000  0.000  0.000  0.001
106  0.000  0.000  0.000  0.000  0.000  0.000  0.000  0.000  0.000  0.000
107  0.000  0.000  0.000  0.000  0.000  0.000  0.000  0.000  0.000  0.000
108  0.001  0.000  0.000  0.000  0.000  0.000  0.000  0.000  0.000  0.001
109  0.002  0.000  0.000  0.000  0.000  0.000  0.000  0.000  0.000  0.002
110  0.002  0.000  0.000  0.000  0.000  0.000  0.000  0.000  0.000  0.002
111  0.000  0.000  0.000  0.000  0.000  0.000  0.000  0.000  0.000  0.000
112  0.000  0.000  0.000  0.000  0.000  0.000  0.000  0.000  0.000  0.000
113  0.000  0.000  0.000  0.000  0.000  0.000  0.000  0.000  0.000  0.000
114  0.000  0.000  0.000  0.000  0.000  0.000  0.000  0.000  0.000  0.000
115  0.002  0.000  0.000  0.000  0.000  0.000  0.000  0.000  0.000  0.002
116  0.001  0.000  0.000  0.000  0.000  0.000  0.000  0.000  0.000  0.001
117  0.002  0.000  0.000  0.000  0.000  0.000  0.000  0.000  0.000  0.002
118  0.000  0.000  0.000  0.000  0.000  0.000  0.000  0.000  0.000  0.000
119  0.001  0.000  0.000  0.000  0.000  0.000  0.000  0.000  0.000  0.001
120  0.002  0.000  0.000  0.000  0.000  0.000  0.000  0.000  0.000  0.002
121  0.000  0.000  0.000  0.000  0.000  0.000  0.000  0.000  0.000  0.000
122  0.001  0.000  0.000  0.000  0.000  0.000  0.000  0.000  0.000  0.001
123  0.002  0.000  0.000  0.000  0.000  0.000  0.000  0.000  0.000  0.002
124  0.002  0.000  0.000  0.000  0.000  0.000  0.000  0.000  0.000  0.002
125  0.001  0.000  0.000  0.000  0.000  0.000  0.000  0.000  0.000  0.001
126  0.000  0.000  0.000  0.000  0.000  0.000  0.000  0.000  0.000  0.000
127  0.002  0.000  0.000  0.000  0.000  0.000  0.000  0.000  0.000  0.002
128  0.000  0.000  0.000  0.000  0.000  0.000  0.000  0.000  0.000  0.000
tot  0.113  0.002  0.003  0.001  0.000  0.000  0.000  0.000  0.000  0.119

band   3 # energy   -2.52771661 # occ.  2.00000000

ion      s     py     pz     px    dxy    dyz    dz2    dxz    dx2    tot
  1  0.001  0.000  0.000  0.000  0.000  0.000  0.000  0.000  0.000  0.001
  2  0.000  0.000  0.000  0.000  0.000  0.000  0.000  0.000  0.000  0.000
  3  0.000  0.000  0.000  0.000  0.000  0.000  0.000  0.000  0.000  0.000
  4  0.001  0.000  0.000  0.000  0.000  0.000  0.000  0.000  0.000  0.001
  5  0.001  0.000  0.000  0.000  0.000  0.000  0.000  0.000  0.000  0.001
  6  0.000  0.000  0.000  0.000  0.000  0.000  0.000  0.000  0.000  0.000
  7  0.002  0.000  0.000  0.000  0.000  0.000  0.000  0.000  0.000  0.002
  8  0.001  0.000  0.000  0.000  0.000  0.000  0.000  0.000  0.000  0.001
  9  0.000  0.000  0.000  0.000  0.000  0.000  0.000  0.000  0.000  0.000
 10  0.003  0.000  0.000  0.000  0.000  0.000  0.000  0.000  0.000  0.003
 11  0.001  0.000  0.000  0.000  0.000  0.000  0.000  0.000  0.000  0.001
 12  0.001  0.000  0.000  0.000  0.000  0.000  0.000  0.000  0.000  0.001
 13  0.003  0.000  0.000  0.000  0.000  0.000  0.000  0.000  0.000  0.003
 14  0.001  0.000  0.000  0.000  0.000  0.000  0.000  0.000  0.000  0.001
 15  0.001  0.000  0.000  0.000  0.000  0.000  0.000  0.000  0.000  0.001
 16  0.002  0.000  0.000  0.000  0.000  0.000  0.000  0.000  0.000  0.002
 17  0.003  0.000  0.000  0.000  0.000  0.000  0.000  0.000  0.000  0.003
 18  0.000  0.000  0.000  0.000  0.000  0.000  0.000  0.000  0.000  0.001
 19  0.002  0.000  0.000  0.000  0.000  0.000  0.000  0.000  0.000  0.002
 20  0.002  0.000  0.000  0.000  0.000  0.000  0.000  0.000  0.000  0.002
 21  0.001  0.000  0.000  0.000  0.000  0.000  0.000  0.000  0.000  0.001
 22  0.002  0.000  0.000  0.000  0.000  0.000  0.000  0.000  0.000  0.002
 23  0.000  0.000  0.000  0.000  0.000  0.000  0.000  0.000  0.000  0.000
 24  0.001  0.000  0.000  0.000  0.000  0.000  0.000  0.000  0.000  0.001
 25  0.001  0.000  0.000  0.000  0.000  0.000  0.000  0.000  0.000  0.001
 26  0.000  0.000  0.000  0.000  0.000  0.000  0.000  0.000  0.000  0.000
 27  0.001  0.000  0.000  0.000  0.000  0.000  0.000  0.000  0.000  0.001
 28  0.002  0.000  0.000  0.000  0.000  0.000  0.000  0.000  0.000  0.002
 29  0.002  0.000  0.000  0.000  0.000  0.000  0.000  0.000  0.000  0.002
 30  0.002  0.000  0.000  0.000  0.000  0.000  0.000  0.000  0.000  0.002
 31  0.000  0.000  0.000  0.000  0.000  0.000  0.000  0.000  0.000  0.000
 32  0.000  0.000  0.000  0.000  0.000  0.000  0.000  0.000  0.000  0.000
 33  0.001  0.000  0.000  0.000  0.000  0.000  0.000  0.000  0.000  0.001
 34  0.001  0.000  0.000  0.000  0.000  0.000  0.000  0.000  0.000  0.001
 35  0.000  0.000  0.000  0.000  0.000  0.000  0.000  0.000  0.000  0.000
 36  0.000  0.000  0.000  0.000  0.000  0.000  0.000  0.000  0.000  0.000
 37  0.001  0.000  0.000  0.000  0.000  0.000  0.000  0.000  0.000  0.001
 38  0.000  0.000  0.000  0.000  0.000  0.000  0.000  0.000  0.000  0.000
 39  0.002  0.000  0.000  0.000  0.000  0.000  0.000  0.000  0.000  0.002
 40  0.002  0.000  0.000  0.000  0.000  0.000  0.000  0.000  0.000  0.003
 41  0.002  0.000  0.000  0.000  0.000  0.000  0.000  0.000  0.000  0.002
 42  0.002  0.000  0.000  0.000  0.000  0.000  0.000  0.000  0.000  0.002
 43  0.000  0.000  0.000  0.000  0.000  0.000  0.000  0.000  0.000  0.000
 44  0.000  0.000  0.000  0.000  0.000  0.000  0.000  0.000  0.000  0.000
 45  0.000  0.000  0.000  0.000  0.000  0.000  0.000  0.000  0.000  0.000
 46  0.001  0.000  0.000  0.000  0.000  0.000  0.000  0.000  0.000  0.001
 47  0.000  0.000  0.000  0.000  0.000  0.000  0.000  0.000  0.000  0.000
 48  0.001  0.000  0.000  0.000  0.000  0.000  0.000  0.000  0.000  0.001
 49  0.000  0.000  0.000  0.000  0.000  0.000  0.000  0.000  0.000  0.000
 50  0.001  0.000  0.000  0.000  0.000  0.000  0.000  0.000  0.000  0.001
 51  0.001  0.000  0.000  0.000  0.000  0.000  0.000  0.000  0.000  0.001
 52  0.000  0.000  0.000  0.000  0.000  0.000  0.000  0.000  0.000  0.000
 53  0.003  0.000  0.000  0.000  0.000  0.000  0.000  0.000  0.000  0.003
 54  0.001  0.000  0.000  0.000  0.000  0.000  0.000  0.000  0.000  0.001
 55  0.000  0.000  0.000  0.000  0.000  0.000  0.000  0.000  0.000  0.000
 56  0.003  0.000  0.000  0.000  0.000  0.000  0.000  0.000  0.000  0.003
 57  0.002  0.000  0.000  0.000  0.000  0.000  0.000  0.000  0.000  0.002
 58  0.000  0.000  0.000  0.000  0.000  0.000  0.000  0.000  0.000  0.000
 59  0.000  0.000  0.000  0.000  0.000  0.000  0.000  0.000  0.000  0.000
 60  0.000  0.000  0.000  0.000  0.000  0.000  0.000  0.000  0.000  0.000
 61  0.000  0.000  0.000  0.000  0.000  0.000  0.000  0.000  0.000  0.000
 62  0.001  0.000  0.000  0.000  0.000  0.000  0.000  0.000  0.000  0.001
 63  0.000  0.000  0.000  0.000  0.000  0.000  0.000  0.000  0.000  0.000
 64  0.000  0.000  0.000  0.000  0.000  0.000  0.000  0.000  0.000  0.000
 65  0.000  0.000  0.000  0.000  0.000  0.000  0.000  0.000  0.000  0.000
 66  0.001  0.000  0.000  0.000  0.000  0.000  0.000  0.000  0.000  0.001
 67  0.000  0.000  0.000  0.000  0.000  0.000  0.000  0.000  0.000  0.000
 68  0.001  0.000  0.000  0.000  0.000  0.000  0.000  0.000  0.000  0.001
 69  0.001  0.000  0.000  0.000  0.000  0.000  0.000  0.000  0.000  0.001
 70  0.000  0.000  0.000  0.000  0.000  0.000  0.000  0.000  0.000  0.000
 71  0.001  0.000  0.000  0.000  0.000  0.000  0.000  0.000  0.000  0.001
 72  0.001  0.000  0.000  0.000  0.000  0.000  0.000  0.000  0.000  0.002
 73  0.000  0.000  0.000  0.000  0.000  0.000  0.000  0.000  0.000  0.000
 74  0.001  0.000  0.000  0.000  0.000  0.000  0.000  0.000  0.000  0.001
 75  0.001  0.000  0.000  0.000  0.000  0.000  0.000  0.000  0.000  0.001
 76  0.001  0.000  0.000  0.000  0.000  0.000  0.000  0.000  0.000  0.001
 77  0.000  0.000  0.000  0.000  0.000  0.000  0.000  0.000  0.000  0.000
 78  0.000  0.000  0.000  0.000  0.000  0.000  0.000  0.000  0.000  0.000
 79  0.001  0.000  0.000  0.000  0.000  0.000  0.000  0.000  0.000  0.001
 80  0.000  0.000  0.000  0.000  0.000  0.000  0.000  0.000  0.000  0.000
 81  0.004  0.000  0.000  0.000  0.000  0.000  0.000  0.000  0.000  0.004
 82  0.000  0.000  0.000  0.000  0.000  0.000  0.000  0.000  0.000  0.000
 83  0.002  0.000  0.000  0.000  0.000  0.000  0.000  0.000  0.000  0.002
 84  0.001  0.000  0.000  0.000  0.000  0.000  0.000  0.000  0.000  0.001
 85  0.000  0.000  0.000  0.000  0.000  0.000  0.000  0.000  0.000  0.000
 86  0.000  0.000  0.000  0.000  0.000  0.000  0.000  0.000  0.000  0.000
 87  0.002  0.000  0.000  0.000  0.000  0.000  0.000  0.000  0.000  0.002
 88  0.000  0.000  0.000  0.000  0.000  0.000  0.000  0.000  0.000  0.000
 89  0.001  0.000  0.000  0.000  0.000  0.000  0.000  0.000  0.000  0.001
 90  0.000  0.000  0.000  0.000  0.000  0.000  0.000  0.000  0.000  0.000
 91  0.002  0.000  0.000  0.000  0.000  0.000  0.000  0.000  0.000  0.002
 92  0.001  0.000  0.000  0.000  0.000  0.000  0.000  0.000  0.000  0.001
 93  0.002  0.000  0.000  0.000  0.000  0.000  0.000  0.000  0.000  0.002
 94  0.001  0.000  0.000  0.000  0.000  0.000  0.000  0.000  0.000  0.001
 95  0.000  0.000  0.000  0.000  0.000  0.000  0.000  0.000  0.000  0.000
 96  0.000  0.000  0.000  0.000  0.000  0.000  0.000  0.000  0.000  0.000
 97  0.002  0.000  0.000  0.000  0.000  0.000  0.000  0.000  0.000  0.002
 98  0.001  0.000  0.000  0.000  0.000  0.000  0.000  0.000  0.000  0.001
 99  0.002  0.000  0.000  0.000  0.000  0.000  0.000  0.000  0.000  0.002
100  0.001  0.000  0.000  0.000  0.000  0.000  0.000  0.000  0.000  0.001
101  0.000  0.000  0.000  0.000  0.000  0.000  0.000  0.000  0.000  0.000
102  0.000  0.000  0.000  0.000  0.000  0.000  0.000  0.000  0.000  0.000
103  0.000  0.000  0.000  0.000  0.000  0.000  0.000  0.000  0.000  0.000
104  0.000  0.000  0.000  0.000  0.000  0.000  0.000  0.000  0.000  0.000
105  0.001  0.000  0.000  0.000  0.000  0.000  0.000  0.000  0.000  0.001
106  0.001  0.000  0.000  0.000  0.000  0.000  0.000  0.000  0.000  0.001
107  0.001  0.000  0.000  0.000  0.000  0.000  0.000  0.000  0.000  0.001
108  0.000  0.000  0.000  0.000  0.000  0.000  0.000  0.000  0.000  0.000
109  0.000  0.000  0.000  0.000  0.000  0.000  0.000  0.000  0.000  0.000
110  0.001  0.000  0.000  0.000  0.000  0.000  0.000  0.000  0.000  0.001
111  0.001  0.000  0.000  0.000  0.000  0.000  0.000  0.000  0.000  0.001
112  0.000  0.000  0.000  0.000  0.000  0.000  0.000  0.000  0.000  0.001
113  0.001  0.000  0.000  0.000  0.000  0.000  0.000  0.000  0.000  0.001
114  0.001  0.000  0.000  0.000  0.000  0.000  0.000  0.000  0.000  0.001
115  0.001  0.000  0.000  0.000  0.000  0.000  0.000  0.000  0.000  0.002
116  0.000  0.000  0.000  0.000  0.000  0.000  0.000  0.000  0.000  0.000
117  0.001  0.000  0.000  0.000  0.000  0.000  0.000  0.000  0.000  0.001
118  0.000  0.000  0.000  0.000  0.000  0.000  0.000  0.000  0.000  0.000
119  0.001  0.000  0.000  0.000  0.000  0.000  0.000  0.000  0.000  0.001
120  0.000  0.000  0.000  0.000  0.000  0.000  0.000  0.000  0.000  0.000
121  0.001  0.000  0.000  0.000  0.000  0.000  0.000  0.000  0.000  0.001
122  0.001  0.000  0.000  0.000  0.000  0.000  0.000  0.000  0.000  0.001
123  0.001  0.000  0.000  0.000  0.000  0.000  0.000  0.000  0.000  0.001
124  0.001  0.000  0.000  0.000  0.000  0.000  0.000  0.000  0.000  0.001
125  0.001  0.000  0.000  0.000  0.000  0.000  0.000  0.000  0.000  0.001
126  0.000  0.000  0.000  0.000  0.000  0.000  0.000  0.000  0.000  0.000
127  0.000  0.000  0.000  0.000  0.000  0.000  0.000  0.000  0.000  0.001
128  0.001  0.000  0.000  0.000  0.000  0.000  0.000  0.000  0.000  0.001
tot  0.114  0.001  0.001  0.003  0.000  0.000  0.000  0.000  0.000  0.120

band   4 # energy   -2.40692885 # occ.  2.00000000

ion      s     py     pz     px    dxy    dyz    dz2    dxz    dx2    tot
  1  0.000  0.000  0.000  0.000  0.000  0.000  0.000  0.000  0.000  0.000
  2  0.001  0.000  0.000  0.000  0.000  0.000  0.000  0.000  0.000  0.001
  3  0.002  0.000  0.000  0.000  0.000  0.000  0.000  0.000  0.000  0.002
  4  0.001  0.000  0.000  0.000  0.000  0.000  0.000  0.000  0.000  0.001
  5  0.000  0.000  0.000  0.000  0.000  0.000  0.000  0.000  0.000  0.000
  6  0.001  0.000  0.000  0.000  0.000  0.000  0.000  0.000  0.000  0.001
  7  0.001  0.000  0.000  0.000  0.000  0.000  0.000  0.000  0.000  0.001
  8  0.001  0.000  0.000  0.000  0.000  0.000  0.000  0.000  0.000  0.001
  9  0.000  0.000  0.000  0.000  0.000  0.000  0.000  0.000  0.000  0.000